<LesHouchesEvents version="3.0">
<header>
<!--
#*********************************************************************
#                                                                    *
#                        MadGraph5_aMC@NLO                           *
#                                                                    *
#                           Going Beyond                             *
#                                                                    *
#                   http://madgraph.hep.uiuc.edu                     *
#                   http://madgraph.phys.ucl.ac.be                   *
#                   http://amcatnlo.cern.ch                          *
#                                                                    *
#                     The MadGraph5_aMC@NLO team                     *
#                                                                    *
#....................................................................*
#                                                                    *
# This file contains all the information necessary to reproduce      *
# the events generated:                                              *
#                                                                    *
# 1. software version                                                *
# 2. proc_card          : code generation info including model       *
# 3. param_card         : model primary parameters in the LH format  *
# 4. run_card           : running parameters (collider and cuts)     *
# 5. pythia_card        : present only if pythia has been run        *
# 6. pgs_card           : present only if pgs has been run           *
# 7. delphes_cards      : present only if delphes has been run       *
#                                                                    *
#                                                                    *
#*********************************************************************
-->
<MGVersion>
#2.6.4
</MGVersion>
<MG5ProcCard>
<![CDATA[
#************************************************************
#*                     MadGraph5_aMC@NLO                    *
#*                                                          *
#*                *                       *                 *
#*                  *        * *        *                   *
#*                    * * * * 5 * * * *                     *
#*                  *        * *        *                   *
#*                *                       *                 *
#*                                                          *
#*                                                          *
#*         VERSION 2.6.4                 2018-11-09         *
#*                                                          *
#*    The MadGraph5_aMC@NLO Development Team - Find us at   *
#*    https://server06.fynu.ucl.ac.be/projects/madgraph     *
#*                                                          *
#************************************************************
#*                                                          *
#*               Command File for MadGraph5_aMC@NLO         *
#*                                                          *
#*     run as ./bin/mg5_aMC  filename                       *
#*                                                          *
#************************************************************
set default_unset_couplings 99
set group_subprocesses Auto
set ignore_six_quark_processes False
set loop_optimized_output True
set loop_color_flows False
set gauge unitary
set complex_mass_scheme False
set max_npoint_for_channel 0
import model Darkphoton --modelname
define  e- = e1
define  e+ = e1bar
define mmm = a h1 h2 z
import_events decay Fluxes/Eta_Flux.hepmc
decay etam >  a chi chic
define darkmatter chi
add process interaction @electron /mmm
output preliminary_results/DP_DP_2_electron_machado_eta
]]>
</MG5ProcCard>
<MGProcCard>
<![CDATA[
#*********************************************************************
#                        MadGraph/MadEvent                           *
#                   http://madgraph.hep.uiuc.edu                     *
#                                                                    *
#                          proc_card.dat                             *
#*********************************************************************
#                                                                    *
#            This Files is generated by MADGRAPH 5                   *
#                                                                    *
# WARNING: This Files is generated for MADEVENT (compatibility issue)*
#          This files is NOT a valid MG4 proc_card.dat               *
#          Running this in MG4 will NEVER reproduce the result of MG5*
#                                                                    *
#*********************************************************************
#*********************************************************************
# Process(es) requested : mg2 input                                  *
#*********************************************************************
# Begin PROCESS # This is TAG. Do not modify this line
chi e- > chi e- /mmm @1200           #Process
# Be carefull the coupling are here in MG5 convention
          
end_coup           # End the couplings input

done               # this tells MG there are no more procs
# End PROCESS  # This is TAG. Do not modify this line
#*********************************************************************
# Model information                                                  *
#*********************************************************************
# Begin MODEL  # This is TAG. Do not modify this line
Darkphoton
# End   MODEL  # This is TAG. Do not modify this line
#*********************************************************************
# Start multiparticle definitions                                    *
#*********************************************************************
# Begin MULTIPARTICLES # This is TAG. Do not modify this line

# End  MULTIPARTICLES # This is TAG. Do not modify this line
]]>
</MGProcCard>
<MGRunCard>
<![CDATA[
#*********************************************************************
#                       MadGraph5_aMC@NLO                            *
#                                                                    *
#                     run_card.dat MadEvent                          *
#                                                                    *
#  This file is used to set the parameters of the run.               *
#                                                                    *
#  Some notation/conventions:                                        *
#                                                                    *
#   Lines starting with a '# ' are info or comments                  *
#                                                                    *
#   mind the format:   value    = variable     ! comment             *
#                                                                    *
#   To display more options, you can type the command:               *
#      update full_run_card                                          *
#*********************************************************************
#
#*******************                                                 
# Running parameters
#*******************                                                 
#                                                                    
#*********************************************************************
# Tag name for the run (one word)                                    *
#*********************************************************************
  tag_1     = run_tag ! name of the run 
#*********************************************************************
# Number of events and rnd seed                                      *
# Warning: Do not generate more than 1M events in a single run       *
# If you want to run Pythia, avoid more than 50k events in a run.    *
#*********************************************************************
  2565 = nevents ! Number of unweighted events requested 
 21 = iseed   ! rnd seed (0=assigned automatically=default))
#*********************************************************************
# Collider type and energy                                           *
# lpp: 0=No PDF, 1=proton, -1=antiproton, 2=photon from proton,      *
#                                         3=photon from electron     *
#*********************************************************************
     9        = lpp1    ! beam 1 type 
     0        = lpp2    ! beam 2 type
     75.354900378     = ebeam1  ! beam 1 total energy in GeV
     0.000511     = ebeam2  ! beam 2 total energy in GeV
#*********************************************************************
# PDF CHOICE: this automatically fixes also alpha_s and its evol.    *
#*********************************************************************
     nn23lo1    = pdlabel     ! PDF set                                     
     230000    = lhaid     ! if pdlabel=lhapdf, this is the lhapdf number
#*********************************************************************
# Renormalization and factorization scales                           *
#*********************************************************************
 False = fixed_ren_scale  ! if .true. use fixed ren scale
 False        = fixed_fac_scale  ! if .true. use fixed fac scale
 91.188  = scale            ! fixed ren scale
 91.188  = dsqrt_q2fact1    ! fixed fact scale for pdf1
 91.188  = dsqrt_q2fact2    ! fixed fact scale for pdf2
 -1 = dynamical_scale_choice ! Choose one of the preselected dynamical choices
 1.0  = scalefact        ! scale factor for event-by-event scales
#*********************************************************************
# Type and output format
#*********************************************************************
  False     = gridpack  !True = setting up the grid pack
  -1.0 = time_of_flight ! threshold (in mm) below which the invariant livetime is not written (-1 means not written)
  3.0 = lhe_version       ! Change the way clustering information pass to shower.        
  True = clusinfo         ! include clustering tag in output
  average =  event_norm       ! average/sum. Normalization of the weight in the LHEF

#*********************************************************************
# Matching parameter (MLM only)
#*********************************************************************
 0 = ickkw            ! 0 no matching, 1 MLM
 1.0 = alpsfact         ! scale factor for QCD emission vx
 False = chcluster        ! cluster only according to channel diag
 5 = asrwgtflavor     ! highest quark flavor for a_s reweight
 False  = auto_ptj_mjj  ! Automatic setting of ptj and mjj if xqcut >0
                                   ! (turn off for VBF and single top processes) 
 0.0   = xqcut   ! minimum kt jet measure between partons
#*********************************************************************
#
#*********************************************************************
# handling of the helicities:
#  0: sum over all helicities
#  1: importance sampling over helicities
#*********************************************************************
   0  = nhel          ! using helicities importance sampling or not.
#*********************************************************************
# Generation bias, check the wiki page below for more information:   *
#  'cp3.irmp.ucl.ac.be/projects/madgraph/wiki/LOEventGenerationBias' *
#*********************************************************************
 None = bias_module  ! Bias type of bias, [None, ptj_bias, -custom_folder-]
 {} = bias_parameters ! Specifies the parameters of the module.
#
#*******************************                                                 
# Parton level cuts definition *
#*******************************                                     
#                                                                    
#
#*********************************************************************
# BW cutoff (M+/-bwcutoff*Gamma) ! Define on/off-shell for "$$" and decay  
#*********************************************************************
  15.0  = bwcutoff      ! (M+/-bwcutoff*Gamma)
#*********************************************************************
# Apply pt/E/eta/dr/mij/kt_durham cuts on decay products or not
# (note that etmiss/ptll/ptheavy/ht/sorted cuts always apply)
#*********************************************************************
   False  = cut_decays    ! Cut decay products 
#*********************************************************************
# Standard Cuts                                                      *
#*********************************************************************
# Minimum and maximum pt's (for max, -1 means no cut)                *
#*********************************************************************
 0.0  = ptj       ! minimum pt for the jets 
 0.0  = ptb       ! minimum pt for the b 
 0.0  = pta       ! minimum pt for the photons 
 0.0  = ptl       ! minimum pt for the charged leptons 
 0.0  = misset    ! minimum missing Et (sum of neutrino's momenta)
 -1.0  = ptjmax    ! maximum pt for the jets
 -1.0  = ptbmax    ! maximum pt for the b
 -1.0  = ptamax    ! maximum pt for the photons
 -1.0  = ptlmax    ! maximum pt for the charged leptons
 -1.0  = missetmax ! maximum missing Et (sum of neutrino's momenta)
 {} = pt_min_pdg ! pt cut for other particles (use pdg code). Applied on particle and anti-particle
 {}	= pt_max_pdg ! pt cut for other particles (syntax e.g. {6: 100, 25: 50}) 
#*********************************************************************
# Minimum and maximum E's (in the center of mass frame)              *
#*********************************************************************
  0.0  = ej     ! minimum E for the jets 
  0.0  = eb     ! minimum E for the b 
  0.0  = ea     ! minimum E for the photons 
  0.0  = el     ! minimum E for the charged leptons 
  -1.0   = ejmax ! maximum E for the jets
 -1.0   = ebmax ! maximum E for the b
 -1.0   = eamax ! maximum E for the photons
 -1.0   = elmax ! maximum E for the charged leptons
 {} = e_min_pdg ! E cut for other particles (use pdg code). Applied on particle and anti-particle
 {} = e_max_pdg ! E cut for other particles (syntax e.g. {6: 100, 25: 50}) 
#*********************************************************************
# Maximum and minimum absolute rapidity (for max, -1 means no cut)   *
#*********************************************************************
  -1.0 = etaj    ! max rap for the jets 
  -1.0  = etab    ! max rap for the b
 -1.0  = etaa    ! max rap for the photons 
 -1.0  = etal    ! max rap for the charged leptons 
 0.0  = etajmin ! min rap for the jets
 0.0  = etabmin ! min rap for the b
 0.0  = etaamin ! min rap for the photons
 0.0  = etalmin ! main rap for the charged leptons
 {} = eta_min_pdg ! rap cut for other particles (use pdg code). Applied on particle and anti-particle
 {} = eta_max_pdg ! rap cut for other particles (syntax e.g. {6: 2.5, 23: 5})
#*********************************************************************
# Minimum and maximum DeltaR distance                                *
#*********************************************************************
 0.0 = drjj    ! min distance between jets 
 0.0   = drbb    ! min distance between b's 
 0.0 = drll    ! min distance between leptons 
 0.0 = draa    ! min distance between gammas 
 0.0   = drbj    ! min distance between b and jet 
 0.0 = draj    ! min distance between gamma and jet 
 0.0 = drjl    ! min distance between jet and lepton 
 0.0   = drab    ! min distance between gamma and b 
 0.0   = drbl    ! min distance between b and lepton 
 0.0 = dral    ! min distance between gamma and lepton 
 -1.0  = drjjmax ! max distance between jets
 -1.0  = drbbmax ! max distance between b's
 -1.0  = drllmax ! max distance between leptons
 -1.0  = draamax ! max distance between gammas
 -1.0  = drbjmax ! max distance between b and jet
 -1.0  = drajmax ! max distance between gamma and jet
 -1.0  = drjlmax ! max distance between jet and lepton
 -1.0  = drabmax ! max distance between gamma and b
 -1.0  = drblmax ! max distance between b and lepton
 -1.0  = dralmax ! maxdistance between gamma and lepton
#*********************************************************************
# Minimum and maximum invariant mass for pairs                       *
# WARNING: for four lepton final state mmll cut require to have      *
#          different lepton masses for each flavor!                  *           
#*********************************************************************
 0.0   = mmjj    ! min invariant mass of a jet pair 
 0.0   = mmbb    ! min invariant mass of a b pair 
 0.0   = mmaa    ! min invariant mass of gamma gamma pair
 0.0   = mmll    ! min invariant mass of l+l- (same flavour) lepton pair
 -1.0  = mmjjmax ! max invariant mass of a jet pair
 -1.0  = mmbbmax ! max invariant mass of a b pair
 -1.0  = mmaamax ! max invariant mass of gamma gamma pair
 -1.0  = mmllmax ! max invariant mass of l+l- (same flavour) lepton pair
 {} = mxx_min_pdg ! min invariant mass of a pair of particles X/X~ (e.g. {6:250})
 {'default': False} = mxx_only_part_antipart ! if True the invariant mass is applied only 
                       ! to pairs of particle/antiparticle and not to pairs of the same pdg codes.  
#*********************************************************************
# Minimum and maximum invariant mass for all letpons                 *
#*********************************************************************
 0.0   = mmnl    ! min invariant mass for all letpons (l+- and vl) 
 -1.0  = mmnlmax ! max invariant mass for all letpons (l+- and vl) 
#*********************************************************************
# Minimum and maximum pt for 4-momenta sum of leptons                *
#*********************************************************************
 0.0   = ptllmin  ! Minimum pt for 4-momenta sum of leptons(l and vl)
 -1.0  = ptllmax  ! Maximum pt for 4-momenta sum of leptons(l and vl)
#*********************************************************************
# Inclusive cuts                                                     *
#*********************************************************************
 0.0  = ptheavy   ! minimum pt for at least one heavy final state
 0.0  = xptj ! minimum pt for at least one jet  
 0.0  = xptb ! minimum pt for at least one b 
 0.0  = xpta ! minimum pt for at least one photon 
 0.0  = xptl ! minimum pt for at least one charged lepton 
#*********************************************************************
# Control the pt's of the jets sorted by pt                          *
#*********************************************************************
 0.0   = ptj1min ! minimum pt for the leading jet in pt
 0.0   = ptj2min ! minimum pt for the second jet in pt
 0.0   = ptj3min ! minimum pt for the third jet in pt
 0.0   = ptj4min ! minimum pt for the fourth jet in pt
 -1.0  = ptj1max ! maximum pt for the leading jet in pt 
 -1.0  = ptj2max ! maximum pt for the second jet in pt
 -1.0  = ptj3max ! maximum pt for the third jet in pt
 -1.0  = ptj4max ! maximum pt for the fourth jet in pt
 0   = cutuse  ! reject event if fails any (0) / all (1) jet pt cuts
#*********************************************************************
# Control the pt's of leptons sorted by pt                           *
#*********************************************************************
 0.0   = ptl1min ! minimum pt for the leading lepton in pt
 0.0   = ptl2min ! minimum pt for the second lepton in pt
 0.0   = ptl3min ! minimum pt for the third lepton in pt
 0.0   = ptl4min ! minimum pt for the fourth lepton in pt
 -1.0  = ptl1max ! maximum pt for the leading lepton in pt 
 -1.0  = ptl2max ! maximum pt for the second lepton in pt
 -1.0  = ptl3max ! maximum pt for the third lepton in pt
 -1.0  = ptl4max ! maximum pt for the fourth lepton in pt
#*********************************************************************
# Control the Ht(k)=Sum of k leading jets                            *
#*********************************************************************
 0.0   = htjmin ! minimum jet HT=Sum(jet pt)
 -1.0  = htjmax ! maximum jet HT=Sum(jet pt)
 0.0   = ihtmin  !inclusive Ht for all partons (including b)
 -1.0  = ihtmax  !inclusive Ht for all partons (including b)
 0.0   = ht2min ! minimum Ht for the two leading jets
 0.0   = ht3min ! minimum Ht for the three leading jets
 0.0   = ht4min ! minimum Ht for the four leading jets
 -1.0  = ht2max ! maximum Ht for the two leading jets
 -1.0  = ht3max ! maximum Ht for the three leading jets
 -1.0  = ht4max ! maximum Ht for the four leading jets
#***********************************************************************
# Photon-isolation cuts, according to hep-ph/9801442                   *
# When ptgmin=0, all the other parameters are ignored                  *
# When ptgmin>0, pta and draj are not going to be used                 *
#***********************************************************************
 0.0 = ptgmin ! Min photon transverse momentum
 0.4 = R0gamma ! Radius of isolation code
 1.0 = xn ! n parameter of eq.(3.4) in hep-ph/9801442
 1.0 = epsgamma ! epsilon_gamma parameter of eq.(3.4) in hep-ph/9801442
 True = isoEM ! isolate photons from EM energy (photons and leptons)
#*********************************************************************
# WBF cuts                                                           *
#*********************************************************************
 0.0   = xetamin ! minimum rapidity for two jets in the WBF case  
 -1.0   = deltaeta ! minimum rapidity for two jets in the WBF case 
#***********************************************************************
# Turn on either the ktdurham or ptlund cut to activate                *
# CKKW(L) merging with Pythia8 [arXiv:1410.3012, arXiv:1109.4829]      *
#***********************************************************************
 0.0  =  ktdurham        
 0.0   =  dparameter
 0.0  =  ptlund
 21, 1, 2, 3, 4, 5, 6  =  pdgs_for_merging_cut ! PDGs for two cuts above   
#*********************************************************************
# maximal pdg code for quark to be considered as a light jet         *
# (otherwise b cuts are applied)                                     *
#*********************************************************************
 4 = maxjetflavor    ! Maximum jet pdg code
#*********************************************************************
#
#*********************************************************************
# Store info for systematics studies                                 *
# WARNING: Do not use for interference type of computation           *
#*********************************************************************
   False  = use_syst      ! Enable systematics studies
#
systematics = systematics_program ! none, systematics [python], SysCalc [depreceted, C++]
['--mur=0.5,1,2', '--muf=0.5,1,2', '--pdf=errorset'] = systematics_arguments ! see: https://cp3.irmp.ucl.ac.be/projects/madgraph/wiki/Systematics#Systematicspythonmodule
# Syscalc is deprecated but to see the associate options type'update syscalc'
]]>
</MGRunCard>
<slha>
<![CDATA[
# SUSY Les Houches Accord 2 - Darkphoton Spectrum + Decays + Flavor Observables
# SPheno module generated by SARAH
# ----------------------------------------------------------------------
# SPheno v4.0.4  
#   W. Porod, Comput. Phys. Commun. 153 (2003) 275-315, hep-ph/0301101
#   W. Porod, F.Staub, Comput.Phys.Commun.183 (2012) 2458-2469, arXiv:1104.1573
# SARAH: 4.14.1  
#   F. Staub; arXiv:0806.0538 (online manual)
#   F. Staub; Comput. Phys. Commun. 181 (2010) 1077-1086; arXiv:0909.2863
#   F. Staub; Comput. Phys. Commun. 182 (2011)  808-833; arXiv:1002.0840
#   F. Staub; Comput. Phys. Commun. 184 (2013)  1792-1809; arXiv:1207.0906
#   F. Staub; Comput. Phys. Commun. 185 (2014)  1773-1790; arXiv:1309.7223 
# Including the calculation of flavor observables based on the FlavorKit 
#   W. Porod, F. Staub, A. Vicente; Eur.Phys.J. C74 (2014) 8, 2992; arXiv:1405.1434 
# Two-loop masss corrections to Higgs fields based on 
#   M. D. Goodsell, K. Nickel, F. Staub; Eur.Phys.J. C75 (2015) no.6, 290; arXiv:1411.0675 
#   M. D. Goodsell, K. Nickel, F. Staub; Eur.Phys.J. C75 (2015) no.1, 32; arXiv:1503.03098
#   M. D. Goodsell, F. Staub; arXiv:1511.01904
#  
# in case of problems send email to florian.staub@kit.edu and goodsell@lpthe.jussieu.fr 
# ----------------------------------------------------------------------
# Created: 13.02.2022,  00:05
Block SPINFO         # Program information
     1   SPhenoSARAH      # spectrum calculator
     2   v4.0.4      # version number of SPheno
     9   4.14.1      # version number of SARAH
Block MODSEL  # Input parameters
     1  1   #  GUT scale input
     2  1   #  Boundary conditions 
     6  1   #  switching on flavour violation
Block MINPAR  # Input parameters
    1    2.60000000E-01  # LambdaInput
    2    1.00000000E-07  # LPInput
    3    1.32000000E-07  # LCInput
    4    8.22628700E-10  # LCPInput
    5    1.32000000E-07  # LHPInput
    6    8.22628700E-10  # LHCInput
    7    1.00000000E-07  # LEInput
    8    8.22628700E-04  # LPEInput
    9    8.22628700E-04  # LHEInput
   10    1.32000000E-07  # LECInput
   14    0.00000000E+00  # mChi2Input
   15    0.00000000E+00  # mEta2Input
   20    1.12099800E+00  # gXInput
   21    1.49806800E-02  # MZpMass
   22    2.36798500E-05  # g1XInput
   23    0.00000000E+00  # gX1Input
Block gaugeGUT Q= -1.00000000E+00  # (GUT scale)
   1    0.00000000E+00  # g1(Q)
   2    0.00000000E+00  # g2(Q)
   3    0.00000000E+00  # g3(Q)
   4    0.00000000E+00  # gX(Q)
Block SMINPUTS  # SM parameters
         1     1.27932000E+02  # alpha_em^-1(MZ)^MSbar
         2     1.16637000E-05  # G_mu [GeV^-2]
         3     1.18700000E-01  # alpha_s(MZ)^MSbar
         4     9.11887000E+01  # m_Z(pole)
         5     4.18000000E+00  # m_b(m_b), MSbar
         6     1.73500000E+02  # m_t(pole)
         7     1.77669000E+00  # m_tau(pole)
Block GAUGE Q=  1.73500000E+02  # (Renormalization Scale)
   1    3.55690247E-01  # g1
  10    2.36798500E-05  # g1X
   2    6.62798598E-01  # g2
   3    1.22132231E+00  # g3
   4    1.12099800E+00  # gX
  11    0.00000000E+00  # gX1
Block DBS Q=  1.73500000E+02  # (Renormalization Scale)
  11    1.32000000E-07  # LamC
  15    1.00000000E-07  # LamE
  10    1.00000000E-07  # LamP
  18    1.32000000E-07  # LamEC
  14    8.22628700E-10  # LamHC
  17    8.22628700E-04  # LamHE
  13    1.32000000E-07  # LamHP
  12    8.22628700E-10  # LamCP
  16    8.22628700E-04  # LamPE
   2    0.00000000E+00  # mX2
   3    0.00000000E+00  # mE2
   1   -4.00122153E-03  # mPhi2
  20    6.68184957E-03  # vP
  20    6.68184957E-03  # vP
Block IMDBS Q=  1.73500000E+02  # (Renormalization Scale)
  11    0.00000000E+00  # LamC
  15    0.00000000E+00  # LamE
  10    0.00000000E+00  # LamP
  18    0.00000000E+00  # LamEC
  14    0.00000000E+00  # LamHC
  17    0.00000000E+00  # LamHE
  13    0.00000000E+00  # LamHP
  12    0.00000000E+00  # LamCP
  16    0.00000000E+00  # LamPE
   2    0.00000000E+00  # mX2
   3    0.00000000E+00  # mE2
   1   -0.00000000E+00  # mPhi2
Block SM Q=  1.73500000E+02  # (Renormalization Scale)
   2    2.60000000E-01  # Lam
   3   -7.88119392E+03  # mH2
Block IMSM Q=  1.73500000E+02  # (Renormalization Scale)
   2    0.00000000E+00  # Lam
   3   -0.00000000E+00  # mH2
Block HMIX Q=  1.73500000E+02  # (Renormalization Scale)
   3    2.46220569E+02  # v
  10    1.57079633E+00  # betaH
  11    1.37775802E-11  # alphaH
Block ANGLES Q=  1.73500000E+02  # (Renormalization Scale)
  10    3.14804373E-05  # TWp
Block TREEDBS Q=  1.73500000E+02  # (Renormalization Scale)
   1   -4.00122153E-03  # mPhi2
Block TREEIMDBS Q=  1.73500000E+02  # (Renormalization Scale)
   1   -0.00000000E+00  # mPhi2
Block TREESM Q=  1.73500000E+02  # (Renormalization Scale)
   3   -7.88119392E+03  # mH2
Block TREEIMSM Q=  1.73500000E+02  # (Renormalization Scale)
   3   -0.00000000E+00  # mH2
Block LOOPDBS Q=  1.73500000E+02  # (Renormalization Scale)
   1    0.00000000E+00  # mPhi2
Block LOOPIMDBS Q=  1.73500000E+02  # (Renormalization Scale)
   1    0.00000000E+00  # mPhi2
Block LOOPSM Q=  1.73500000E+02  # (Renormalization Scale)
   3    0.00000000E+00  # mH2
Block LOOPIMSM Q=  1.73500000E+02  # (Renormalization Scale)
   3    0.00000000E+00  # mH2
Block Yu Q=  1.73500000E+02  # (Renormalization Scale)
  1  1     1.39897827E-05   # Real(Yu(1,1),dp)
  1  2     3.23582995E-06   # Real(Yu(1,2),dp)
  1  3     4.91802180E-08   # Real(Yu(1,3),dp)
  2  1    -1.64341904E-03   # Real(Yu(2,1),dp)
  2  2     7.10058961E-03   # Real(Yu(2,2),dp)
  2  3     3.00419293E-04   # Real(Yu(2,3),dp)
  3  1     5.92627039E-03   # Real(Yu(3,1),dp)
  3  2    -4.07545835E-02   # Real(Yu(3,2),dp)
  3  3     9.95678124E-01   # Real(Yu(3,3),dp)
Block IMYu Q=  1.73500000E+02  # (Renormalization Scale)
  1  1     0.00000000E+00   # Aimag(Yu(1,1))
  1  2     0.00000000E+00   # Aimag(Yu(1,2))
  1  3     0.00000000E+00   # Aimag(Yu(1,3))
  2  1     0.00000000E+00   # Aimag(Yu(2,1))
  2  2     0.00000000E+00   # Aimag(Yu(2,2))
  2  3     0.00000000E+00   # Aimag(Yu(2,3))
  3  1     0.00000000E+00   # Aimag(Yu(3,1))
  3  2     0.00000000E+00   # Aimag(Yu(3,2))
  3  3     0.00000000E+00   # Aimag(Yu(3,3))
Block Yd Q=  1.73500000E+02  # (Renormalization Scale)
  1  1     2.87184285E-05   # Real(Yd(1,1),dp)
  1  2     0.00000000E+00   # Real(Yd(1,2),dp)
  1  3     0.00000000E+00   # Real(Yd(1,3),dp)
  2  1     0.00000000E+00   # Real(Yd(2,1),dp)
  2  2     5.45650142E-04   # Real(Yd(2,2),dp)
  2  3     0.00000000E+00   # Real(Yd(2,3),dp)
  3  1     0.00000000E+00   # Real(Yd(3,1),dp)
  3  2     0.00000000E+00   # Real(Yd(3,2),dp)
  3  3     2.40086062E-02   # Real(Yd(3,3),dp)
Block IMYd Q=  1.73500000E+02  # (Renormalization Scale)
  1  1     0.00000000E+00   # Aimag(Yd(1,1))
  1  2     0.00000000E+00   # Aimag(Yd(1,2))
  1  3     0.00000000E+00   # Aimag(Yd(1,3))
  2  1     0.00000000E+00   # Aimag(Yd(2,1))
  2  2     0.00000000E+00   # Aimag(Yd(2,2))
  2  3     0.00000000E+00   # Aimag(Yd(2,3))
  3  1     0.00000000E+00   # Aimag(Yd(3,1))
  3  2     0.00000000E+00   # Aimag(Yd(3,2))
  3  3     0.00000000E+00   # Aimag(Yd(3,3))
Block Ye Q=  1.73500000E+02  # (Renormalization Scale)
  1  1     2.93501725E-06   # Real(Ye(1,1),dp)
  1  2     0.00000000E+00   # Real(Ye(1,2),dp)
  1  3     0.00000000E+00   # Real(Ye(1,3),dp)
  2  1     0.00000000E+00   # Real(Ye(2,1),dp)
  2  2     6.06868478E-04   # Real(Ye(2,2),dp)
  2  3     0.00000000E+00   # Real(Ye(2,3),dp)
  3  1     0.00000000E+00   # Real(Ye(3,1),dp)
  3  2     0.00000000E+00   # Real(Ye(3,2),dp)
  3  3     1.02047490E-02   # Real(Ye(3,3),dp)
Block IMYe Q=  1.73500000E+02  # (Renormalization Scale)
  1  1     0.00000000E+00   # Aimag(Ye(1,1))
  1  2     0.00000000E+00   # Aimag(Ye(1,2))
  1  3     0.00000000E+00   # Aimag(Ye(1,3))
  2  1     0.00000000E+00   # Aimag(Ye(2,1))
  2  2     0.00000000E+00   # Aimag(Ye(2,2))
  2  3     0.00000000E+00   # Aimag(Ye(2,3))
  3  1     0.00000000E+00   # Aimag(Ye(3,1))
  3  2     0.00000000E+00   # Aimag(Ye(3,2))
  3  3     0.00000000E+00   # Aimag(Ye(3,3))
Block MASS  # Mass spectrum
#   PDG code      mass          particle
        35     1.00000000E-05  # hh_1
        25     1.25548349E+02  # hh_2
        22     0.00000000E+00  # VP
        23     9.11887000E+01  # VZ
        31     1.49806800E-02  # VZp
        21     0.00000000E+00  # VG
        24     8.03497269E+01  # VWp
        50     4.99357137E-03  # chi
        51     4.99357137E+00  # eta
         1     5.00000000E-03  # Fd_1
         3     9.50000000E-02  # Fd_2
         5     4.18000000E+00  # Fd_3
         2     2.50000000E-03  # Fu_1
         4     1.27000000E+00  # Fu_2
         6     1.73500000E+02  # Fu_3
        11     5.10998930E-04  # Fe_1
        13     1.05658372E-01  # Fe_2
        15     1.77669000E+00  # Fe_3
        12     0.00000000E+00  # Fv_1
        14     0.00000000E+00  # Fv_2
        16     0.00000000E+00  # Fv_3
Block SCALARMIX Q=  1.73500000E+02  # ()
  1  1     1.37775802E-11   # ZH(1,1)
  1  2    -1.00000000E+00   # ZH(1,2)
  2  1    -1.00000000E+00   # ZH(2,1)
  2  2    -1.37775802E-11   # ZH(2,2)
Block PSEUDOSCALARMIX Q=  1.73500000E+02  # ()
  1  1    -1.00000000E+00   # ZA(1,1)
  1  2    -5.09260215E-09   # ZA(1,2)
  2  1     5.09260215E-09   # ZA(2,1)
  2  2    -1.00000000E+00   # ZA(2,2)
Block UDLMIX Q=  1.73500000E+02  # ()
  1  1     1.00000000E+00   # Real(ZDL(1,1),dp)
  1  2     0.00000000E+00   # Real(ZDL(1,2),dp)
  1  3     0.00000000E+00   # Real(ZDL(1,3),dp)
  2  1     0.00000000E+00   # Real(ZDL(2,1),dp)
  2  2     1.00000000E+00   # Real(ZDL(2,2),dp)
  2  3     0.00000000E+00   # Real(ZDL(2,3),dp)
  3  1     0.00000000E+00   # Real(ZDL(3,1),dp)
  3  2     0.00000000E+00   # Real(ZDL(3,2),dp)
  3  3     1.00000000E+00   # Real(ZDL(3,3),dp)
Block IMUDLMIX Q=  1.73500000E+02  # ()
  1  1     0.00000000E+00   # Aimag(ZDL(1,1))
  1  2     0.00000000E+00   # Aimag(ZDL(1,2))
  1  3     0.00000000E+00   # Aimag(ZDL(1,3))
  2  1     0.00000000E+00   # Aimag(ZDL(2,1))
  2  2     0.00000000E+00   # Aimag(ZDL(2,2))
  2  3     0.00000000E+00   # Aimag(ZDL(2,3))
  3  1     0.00000000E+00   # Aimag(ZDL(3,1))
  3  2     0.00000000E+00   # Aimag(ZDL(3,2))
  3  3     0.00000000E+00   # Aimag(ZDL(3,3))
Block UDRMIX Q=  1.73500000E+02  # ()
  1  1     1.00000000E+00   # Real(ZDR(1,1),dp)
  1  2     0.00000000E+00   # Real(ZDR(1,2),dp)
  1  3     0.00000000E+00   # Real(ZDR(1,3),dp)
  2  1     0.00000000E+00   # Real(ZDR(2,1),dp)
  2  2     1.00000000E+00   # Real(ZDR(2,2),dp)
  2  3     0.00000000E+00   # Real(ZDR(2,3),dp)
  3  1     0.00000000E+00   # Real(ZDR(3,1),dp)
  3  2     0.00000000E+00   # Real(ZDR(3,2),dp)
  3  3     1.00000000E+00   # Real(ZDR(3,3),dp)
Block IMUDRMIX Q=  1.73500000E+02  # ()
  1  1     0.00000000E+00   # Aimag(ZDR(1,1))
  1  2     0.00000000E+00   # Aimag(ZDR(1,2))
  1  3     0.00000000E+00   # Aimag(ZDR(1,3))
  2  1     0.00000000E+00   # Aimag(ZDR(2,1))
  2  2     0.00000000E+00   # Aimag(ZDR(2,2))
  2  3     0.00000000E+00   # Aimag(ZDR(2,3))
  3  1     0.00000000E+00   # Aimag(ZDR(3,1))
  3  2     0.00000000E+00   # Aimag(ZDR(3,2))
  3  3     0.00000000E+00   # Aimag(ZDR(3,3))
Block UULMIX Q=  1.73500000E+02  # ()
  1  1    -9.74272160E-01   # Real(ZUL(1,1),dp)
  1  2    -2.25348678E-01   # Real(ZUL(1,2),dp)
  1  3    -3.42499367E-03   # Real(ZUL(1,3),dp)
  2  1     2.25296231E-01   # Real(ZUL(2,1),dp)
  2  2    -9.73419462E-01   # Real(ZUL(2,2),dp)
  2  3    -4.11844653E-02   # Real(ZUL(2,3),dp)
  3  1    -5.94690932E-03   # Real(ZUL(3,1),dp)
  3  2     4.08965161E-02   # Real(ZUL(3,2),dp)
  3  3    -9.99145690E-01   # Real(ZUL(3,3),dp)
Block IMUULMIX Q=  1.73500000E+02  # ()
  1  1     0.00000000E+00   # Aimag(ZUL(1,1))
  1  2     0.00000000E+00   # Aimag(ZUL(1,2))
  1  3     0.00000000E+00   # Aimag(ZUL(1,3))
  2  1    -0.00000000E+00   # Aimag(ZUL(2,1))
  2  2     0.00000000E+00   # Aimag(ZUL(2,2))
  2  3     0.00000000E+00   # Aimag(ZUL(2,3))
  3  1     0.00000000E+00   # Aimag(ZUL(3,1))
  3  2     0.00000000E+00   # Aimag(ZUL(3,2))
  3  3     0.00000000E+00   # Aimag(ZUL(3,3))
Block UURMIX Q=  1.73500000E+02  # ()
  1  1     1.00000000E+00   # Real(ZUR(1,1),dp)
  1  2     2.16840434E-19   # Real(ZUR(1,2),dp)
  1  3     0.00000000E+00   # Real(ZUR(1,3),dp)
  2  1    -2.16840434E-19   # Real(ZUR(2,1),dp)
  2  2     1.00000000E+00   # Real(ZUR(2,2),dp)
  2  3    -0.00000000E+00   # Real(ZUR(2,3),dp)
  3  1     0.00000000E+00   # Real(ZUR(3,1),dp)
  3  2     0.00000000E+00   # Real(ZUR(3,2),dp)
  3  3     1.00000000E+00   # Real(ZUR(3,3),dp)
Block IMUURMIX Q=  1.73500000E+02  # ()
  1  1     0.00000000E+00   # Aimag(ZUR(1,1))
  1  2     0.00000000E+00   # Aimag(ZUR(1,2))
  1  3     0.00000000E+00   # Aimag(ZUR(1,3))
  2  1     0.00000000E+00   # Aimag(ZUR(2,1))
  2  2     0.00000000E+00   # Aimag(ZUR(2,2))
  2  3     0.00000000E+00   # Aimag(ZUR(2,3))
  3  1     0.00000000E+00   # Aimag(ZUR(3,1))
  3  2     0.00000000E+00   # Aimag(ZUR(3,2))
  3  3     0.00000000E+00   # Aimag(ZUR(3,3))
Block UELMIX Q=  1.73500000E+02  # ()
  1  1     1.00000000E+00   # Real(ZEL(1,1),dp)
  1  2     0.00000000E+00   # Real(ZEL(1,2),dp)
  1  3     0.00000000E+00   # Real(ZEL(1,3),dp)
  2  1     0.00000000E+00   # Real(ZEL(2,1),dp)
  2  2     1.00000000E+00   # Real(ZEL(2,2),dp)
  2  3     0.00000000E+00   # Real(ZEL(2,3),dp)
  3  1     0.00000000E+00   # Real(ZEL(3,1),dp)
  3  2     0.00000000E+00   # Real(ZEL(3,2),dp)
  3  3     1.00000000E+00   # Real(ZEL(3,3),dp)
Block IMUELMIX Q=  1.73500000E+02  # ()
  1  1     0.00000000E+00   # Aimag(ZEL(1,1))
  1  2     0.00000000E+00   # Aimag(ZEL(1,2))
  1  3     0.00000000E+00   # Aimag(ZEL(1,3))
  2  1     0.00000000E+00   # Aimag(ZEL(2,1))
  2  2     0.00000000E+00   # Aimag(ZEL(2,2))
  2  3     0.00000000E+00   # Aimag(ZEL(2,3))
  3  1     0.00000000E+00   # Aimag(ZEL(3,1))
  3  2     0.00000000E+00   # Aimag(ZEL(3,2))
  3  3     0.00000000E+00   # Aimag(ZEL(3,3))
Block UERMIX Q=  1.73500000E+02  # ()
  1  1     1.00000000E+00   # Real(ZER(1,1),dp)
  1  2     0.00000000E+00   # Real(ZER(1,2),dp)
  1  3     0.00000000E+00   # Real(ZER(1,3),dp)
  2  1     0.00000000E+00   # Real(ZER(2,1),dp)
  2  2     1.00000000E+00   # Real(ZER(2,2),dp)
  2  3     0.00000000E+00   # Real(ZER(2,3),dp)
  3  1     0.00000000E+00   # Real(ZER(3,1),dp)
  3  2     0.00000000E+00   # Real(ZER(3,2),dp)
  3  3     1.00000000E+00   # Real(ZER(3,3),dp)
Block IMUERMIX Q=  1.73500000E+02  # ()
  1  1     0.00000000E+00   # Aimag(ZER(1,1))
  1  2     0.00000000E+00   # Aimag(ZER(1,2))
  1  3     0.00000000E+00   # Aimag(ZER(1,3))
  2  1     0.00000000E+00   # Aimag(ZER(2,1))
  2  2     0.00000000E+00   # Aimag(ZER(2,2))
  2  3     0.00000000E+00   # Aimag(ZER(2,3))
  3  1     0.00000000E+00   # Aimag(ZER(3,1))
  3  2     0.00000000E+00   # Aimag(ZER(3,2))
  3  3     0.00000000E+00   # Aimag(ZER(3,3))
Block SPheno # SPheno internal parameters 
         1    -1.00000000E+00  # ErrorLevel
         2     0.00000000E+00  # SPA_conventions
        11     1.00000000E+00  # Branching ratios
        13     1.00000000E+00  # 3 Body decays
        31    -1.00000000E+00  # GUT scale
        33     1.73500000E+02  # Renormalization scale
        34     1.00000000E-04  # Precision
        35     4.00000000E+01  # Iterations
        38     2.00000000E+00  # RGE level
        40     7.29735257E-03  # Alpha
        41     2.49520000E+00  # Gamma_Z
        42     2.06000000E+00  # Gamma_W
        50     1.00000000E+00  # Rotate negative fermion masses
        51     0.00000000E+00  # Switch to SCKM matrix
        52     1.00000000E+00  # Ignore negative masses
        53     0.00000000E+00  # Ignore negative masses at MZ
        55     0.00000000E+00  # Calculate one loop masses
        56     1.00000000E+00  # Calculate two-loop Higgs masses
        57     0.00000000E+00  # Calculate low energy
        60     1.00000000E+00  # Include kinetic mixing
        65     1.00000000E+00  # Solution of tadpole equation
Block HiggsLHC7 # Higgs production cross section at LHC7 [pb] (rescaled SM values from HXSWG) 
  1        25        1.55567601E+01 # Gluon fusion 
  2        25        1.20289271E+00 # Vector boson fusion 
  3        25        5.32333863E-01 # W-H production 
  4        25        3.12011203E-01 # Z-H production 
  5        25        8.49831703E-02 # t-t-H production 
Block HiggsLHC8 # Higgs production cross section at LHC8 [pb] (rescaled SM values from HXSWG) 
  1        25        1.98075934E+01 # Gluon fusion 
  2        25        1.55136106E+00 # Vector boson fusion 
  3        25        6.83644694E-01 # W-H production 
  4        25        3.89756716E-01 # Z-H production 
  5        25        1.28670563E-01 # t-t-H production 
Block HiggsLHC13 # Higgs production cross section at LHC13 [pb] (rescaled SM values from SusHI 1.5.0) 
  1        25        4.63074275E+01 # Gluon fusion 
Block HiggsLHC14 # Higgs production cross section at LHC14 [pb] (rescaled SM values from SusHI 1.5.0)
  1        25        5.21523776E+01 # Gluon fusion 
Block HiggsFCC100 # Higgs production cross section at FCC-pp [pb] (rescaled SM values from SusHI 1.5.0)
  1        25        7.69754635E+02 # Gluon fusion 
Block EFFHIGGSCOUPLINGS # values of loop-induced couplings 
        35           22           22     0.48630444E-16 # H-Photon-Photon 
        35           21           21     0.39275064E-14 # H-Gluon-Gluon 
        35           22           23     0.00000000E+00 # H-Photon-Z (not yet calculated by SPheno) 
        25           22           22     0.32780978E-04 # H-Photon-Photon 
        25           21           21     0.66115611E-04 # H-Gluon-Gluon 
        25           22           23     0.00000000E+00 # H-Photon-Z (not yet calculated by SPheno) 
Block SPhenoLowEnergy # low energy observables 
       1    0.00000000E+00  # T-parameter (1-loop BSM)
       2    0.00000000E+00  # S-parameter (1-loop BSM)
       3    0.00000000E+00  # U-parameter (1-loop BSM)
      20    0.00000000E+00  # (g-2)_e
      21    0.00000000E+00  # (g-2)_mu
      22    0.00000000E+00  # (g-2)_tau
      23    0.00000000E+00  # EDM(e)
      24    0.00000000E+00  # EDM(mu)
      25    0.00000000E+00  # EDM(tau)
      39    0.00000000E+00  # delta(rho)
Block FlavorKitQFV # quark flavor violating observables 
     200    0.00000000E+00  # BR(B->X_s gamma)
     201    0.00000000E+00  # BR(B->X_s gamma)/BR(B->X_s gamma)_SM
     300    0.00000000E+00  # BR(D->mu nu)
     301    0.00000000E+00  # BR(D->mu nu)/BR(D->mu nu)_SM
     400    0.00000000E+00  # BR(Ds->mu nu)
     401    0.00000000E+00  # BR(Ds->mu nu)/BR(Ds->mu nu)_SM
     402    0.00000000E+00  # BR(Ds->tau nu)
     403    0.00000000E+00  # BR(Ds->tau nu)/BR(Ds->tau nu)_SM
     500    0.00000000E+00  # BR(B->mu nu)
     501    0.00000000E+00  # BR(B->mu nu)/BR(B->mu nu)_SM
     502    0.00000000E+00  # BR(B->tau nu)
     503    0.00000000E+00  # BR(B->tau nu)/BR(B->tau nu)_SM
     600    0.00000000E+00  # BR(K->mu nu)
     601    0.00000000E+00  # BR(K->mu nu)/BR(K->mu nu)_SM
     602    0.00000000E+00  # R_K = BR(K->e nu)/(K->mu nu)
     603    0.00000000E+00  # R_K^SM = BR(K->e nu)_SM/(K->mu nu)_SM
    1900    0.00000000E+00  # Delta(M_Bs)
    1901    0.00000000E+00  # Delta(M_Bs)/Delta(M_Bs)_SM
    1902    0.00000000E+00  # Delta(M_Bd)
    1903    0.00000000E+00  # Delta(M_Bd)/Delta(M_Bd)_SM
    4000    0.00000000E+00  # BR(B^0_d->e e)
    4001    0.00000000E+00  # BR(B^0_d->e e)/BR(B^0_d->e e)_SM
    4002    0.00000000E+00  # BR(B^0_s->e e)
    4003    0.00000000E+00  # BR(B^0_s->e e)/BR(B^0_s->e e)_SM
    4004    0.00000000E+00  # BR(B^0_d->mu mu)
    4005    0.00000000E+00  # BR(B^0_d->mu mu)/BR(B^0_d->mu mu)_SM
    4006    0.00000000E+00  # BR(B^0_s->mu mu)
    4007    0.00000000E+00  # BR(B^0_s->mu mu)/BR(B^0_s->mu mu)_SM
    4008    0.00000000E+00  # BR(B^0_d->tau tau)
    4009    0.00000000E+00  # BR(B^0_d->tau tau)/BR(B^0_d->tau tau)_SM
    4010    0.00000000E+00  # BR(B^0_s->tau tau)
    4011    0.00000000E+00  # BR(B^0_s->tau tau)/BR(B^0_s->tau tau)_SM
    5000    0.00000000E+00  # BR(B-> s e e)
    5001    0.00000000E+00  # BR(B-> s e e)/BR(B-> s e e)_SM
    5002    0.00000000E+00  # BR(B-> s mu mu)
    5003    0.00000000E+00  # BR(B-> s mu mu)/BR(B-> s mu mu)_SM
    6000    0.00000000E+00  # BR(B -> K mu mu)
    6001    0.00000000E+00  # BR(B -> K mu mu)/BR(B -> K mu mu)_SM
    6002    0.00000000E+00  # BR(B -> K mu mu)
    6003    0.00000000E+00  # BR(B -> K mu mu)/BR(B -> K mu mu)_SM
    7000    0.00000000E+00  # BR(B->s nu nu)
    7001    0.00000000E+00  # BR(B->s nu nu)/BR(B->s nu nu)_SM
    7002    0.00000000E+00  # BR(B->D nu nu)
    7003    0.00000000E+00  # BR(B->D nu nu)/BR(B->D nu nu)_SM
    8000    0.00000000E+00  # BR(K^+ -> pi^+ nu nu)
    8001    0.00000000E+00  # BR(K^+ -> pi^+ nu nu)/BR(K^+ -> pi^+ nu nu)_SM
    8002    0.00000000E+00  # BR(K_L -> pi^0 nu nu)
    8003    0.00000000E+00  # BR(K_L -> pi^0 nu nu)/BR(K_L -> pi^0 nu nu)_SM
    8004    0.00000000E+00  # BR(K^0_L -> e mu)
    8005    0.00000000E+00  # BR(K^0_L -> e mu)/BR(K^0_L -> e mu)_SM
    9100    0.00000000E+00  # Delta(M_K)
    9102    0.00000000E+00  # Delta(M_K)/Delta(M_K)_SM
    9103    0.00000000E+00  # epsilon_K
    9104    0.00000000E+00  # epsilon_K/epsilon_K^SM
Block FlavorKitLFV # lepton flavor violating observables 
     701    0.00000000E+00  # BR(mu->e gamma)
     702    0.00000000E+00  # BR(tau->e gamma)
     703    0.00000000E+00  # BR(tau->mu gamma)
     800    0.00000000E+00  # CR(mu-e, Al)
     801    0.00000000E+00  # CR(mu-e, Ti)
     802    0.00000000E+00  # CR(mu-e, Sr)
     803    0.00000000E+00  # CR(mu-e, Sb)
     804    0.00000000E+00  # CR(mu-e, Au)
     805    0.00000000E+00  # CR(mu-e, Pb)
     901    0.00000000E+00  # BR(mu->3e)
     902    0.00000000E+00  # BR(tau->3e)
     903    0.00000000E+00  # BR(tau->3mu)
     904    0.00000000E+00  # BR(tau- -> e- mu+ mu-)
     905    0.00000000E+00  # BR(tau- -> mu- e+ e-)
     906    0.00000000E+00  # BR(tau- -> e+ mu- mu-)
     907    0.00000000E+00  # BR(tau- -> mu+ e- e-)
    1001    0.00000000E+00  # BR(Z->e mu)
    1002    0.00000000E+00  # BR(Z->e tau)
    1003    0.00000000E+00  # BR(Z->mu tau)
    1101    0.00000000E+00  # BR(h->e mu)
    1102    0.00000000E+00  # BR(h->e tau)
    1103    0.00000000E+00  # BR(h->mu tau)
    2001    0.00000000E+00  # BR(tau->e pi)
    2002    0.00000000E+00  # BR(tau->e eta)
    2003    0.00000000E+00  # BR(tau->e eta')
    2004    0.00000000E+00  # BR(tau->mu pi)
    2005    0.00000000E+00  # BR(tau->mu eta)
    2006    0.00000000E+00  # BR(tau->mu eta')
Block FWCOEF Q=  1.60000000E+02  # Wilson coefficients at scale Q 
     0305 4422   00   0     0.00000000E+00    # coeffC7sm
     0305 4422   00   2     0.00000000E+00    # coeffC7
     0305 4322   00   2     0.00000000E+00    # coeffC7p
     0305 4422   00   1     0.00000000E+00    # coeffC7NP
     0305 4322   00   1     0.00000000E+00    # coeffC7pNP
     0305 6421   00   0     0.00000000E+00    # coeffC8sm
     0305 6421   00   2     0.00000000E+00    # coeffC8
     0305 6321   00   2     0.00000000E+00    # coeffC8p
     0305 6421   00   1     0.00000000E+00    # coeffC8NP
     0305 6321   00   1     0.00000000E+00    # coeffC8pNP
 03051111 4133   00   0     0.00000000E+00    # coeffC9eeSM
 03051111 4133   00   2     0.00000000E+00    # coeffC9ee
 03051111 4233   00   2     0.00000000E+00    # coeffC9Pee
 03051111 4133   00   1     0.00000000E+00    # coeffC9eeNP
 03051111 4233   00   1     0.00000000E+00    # coeffC9PeeNP
 03051111 4137   00   0     0.00000000E+00    # coeffC10eeSM
 03051111 4137   00   2     0.00000000E+00    # coeffC10ee
 03051111 4237   00   2     0.00000000E+00    # coeffC10Pee
 03051111 4137   00   1     0.00000000E+00    # coeffC10eeNP
 03051111 4237   00   1     0.00000000E+00    # coeffC10PeeNP
 03051313 4133   00   0     0.00000000E+00    # coeffC9mumuSM
 03051313 4133   00   2     0.00000000E+00    # coeffC9mumu
 03051313 4233   00   2     0.00000000E+00    # coeffC9Pmumu
 03051313 4133   00   1     0.00000000E+00    # coeffC9mumuNP
 03051313 4233   00   1     0.00000000E+00    # coeffC9PmumuNP
 03051313 4137   00   0     0.00000000E+00    # coeffC10mumuSM
 03051313 4137   00   2     0.00000000E+00    # coeffC10mumu
 03051313 4237   00   2     0.00000000E+00    # coeffC10Pmumu
 03051313 4137   00   1     0.00000000E+00    # coeffC10mumuNP
 03051313 4237   00   1     0.00000000E+00    # coeffC10PmumuNP
 03051212 4141   00   0     0.00000000E+00    # coeffCLnu1nu1SM
 03051212 4141   00   2     0.00000000E+00    # coeffCLnu1nu1
 03051212 4241   00   2     0.00000000E+00    # coeffCLPnu1nu1
 03051212 4141   00   1     0.00000000E+00    # coeffCLnu1nu1NP
 03051212 4241   00   1     0.00000000E+00    # coeffCLPnu1nu1NP
 03051414 4141   00   0     0.00000000E+00    # coeffCLnu2nu2SM
 03051414 4141   00   2     0.00000000E+00    # coeffCLnu2nu2
 03051414 4241   00   2     0.00000000E+00    # coeffCLPnu2nu2
 03051414 4141   00   1     0.00000000E+00    # coeffCLnu2nu2NP
 03051414 4241   00   1     0.00000000E+00    # coeffCLPnu2nu2NP
 03051616 4141   00   0     0.00000000E+00    # coeffCLnu3nu3SM
 03051616 4141   00   2     0.00000000E+00    # coeffCLnu3nu3
 03051616 4241   00   2     0.00000000E+00    # coeffCLPnu3nu3
 03051616 4141   00   1     0.00000000E+00    # coeffCLnu3nu3NP
 03051616 4241   00   1     0.00000000E+00    # coeffCLPnu3nu3NP
 03051212 4142   00   0     0.00000000E+00    # coeffCRnu1nu1SM
 03051212 4142   00   2     0.00000000E+00    # coeffCRnu1nu1
 03051212 4242   00   2     0.00000000E+00    # coeffCRPnu1nu1
 03051212 4142   00   1     0.00000000E+00    # coeffCRnu1nu1NP
 03051212 4242   00   1     0.00000000E+00    # coeffCRPnu1nu1NP
 03051414 4142   00   0     0.00000000E+00    # coeffCRnu2nu2SM
 03051414 4142   00   2     0.00000000E+00    # coeffCRnu2nu2
 03051414 4242   00   2     0.00000000E+00    # coeffCRPnu2nu2
 03051414 4142   00   1     0.00000000E+00    # coeffCRnu2nu2NP
 03051414 4242   00   1     0.00000000E+00    # coeffCRPnu2nu2NP
 03051616 4142   00   0     0.00000000E+00    # coeffCRnu3nu3SM
 03051616 4142   00   2     0.00000000E+00    # coeffCRnu3nu3
 03051616 4242   00   2     0.00000000E+00    # coeffCRPnu3nu3
 03051616 4142   00   1     0.00000000E+00    # coeffCRnu3nu3NP
 03051616 4242   00   1     0.00000000E+00    # coeffCRPnu3nu3NP
 01030103 3131   00   2     0.00000000E+00    # coeffKK_SLL
 01030103 3232   00   2     0.00000000E+00    # coeffKK_SRR
 01030103 3132   00   2     0.00000000E+00    # coeffKK_SLR
 01030103 4141   00   2     0.00000000E+00    # coeffKK_VLL
 01030103 4242   00   2     0.00000000E+00    # coeffKK_VRR
 01030103 4142   00   2     0.00000000E+00    # coeffKK_VLR
 01030103 4343   00   2     0.00000000E+00    # coeffKK_TLL
 01030103 4444   00   2     0.00000000E+00    # coeffKK_TRR
 01050105 3131   00   2     0.00000000E+00    # coeffBB_SLL
 01050105 3232   00   2     0.00000000E+00    # coeffBB_SRR
 01050105 3132   00   2     0.00000000E+00    # coeffBB_SLR
 01050105 4141   00   2     0.00000000E+00    # coeffBB_VLL
 01050105 4242   00   2     0.00000000E+00    # coeffBB_VRR
 01050105 4142   00   2     0.00000000E+00    # coeffBB_VLR
 01050105 4343   00   2     0.00000000E+00    # coeffBB_TLL
 01050105 4444   00   2     0.00000000E+00    # coeffBB_TRR
 03050305 3131   00   2     0.00000000E+00    # coeffBsBs_SLL
 03050305 3232   00   2     0.00000000E+00    # coeffBsBs_SRR
 03050305 3132   00   2     0.00000000E+00    # coeffBsBs_SLR
 03050305 4141   00   2     0.00000000E+00    # coeffBsBs_VLL
 03050305 4242   00   2     0.00000000E+00    # coeffBsBs_VRR
 03050305 4142   00   2     0.00000000E+00    # coeffBsBs_VLR
 03050305 4343   00   2     0.00000000E+00    # coeffBsBs_TLL
 03050305 4444   00   2     0.00000000E+00    # coeffBsBs_TRR
 01030103 3131   00   1     0.00000000E+00    # coeffKK_SLLNP
 01030103 3232   00   1     0.00000000E+00    # coeffKK_SRRNP
 01030103 3132   00   1     0.00000000E+00    # coeffKK_SLRNP
 01030103 4141   00   1     0.00000000E+00    # coeffKK_VLLNP
 01030103 4242   00   1     0.00000000E+00    # coeffKK_VRRNP
 01030103 4142   00   1     0.00000000E+00    # coeffKK_VLRNP
 01030103 4343   00   1     0.00000000E+00    # coeffKK_TLLNP
 01030103 4444   00   1     0.00000000E+00    # coeffKK_TRRNP
 01050105 3131   00   1     0.00000000E+00    # coeffBB_SLLNP
 01050105 3232   00   1     0.00000000E+00    # coeffBB_SRRNP
 01050105 3132   00   1     0.00000000E+00    # coeffBB_SLRNP
 01050105 4141   00   1     0.00000000E+00    # coeffBB_VLLNP
 01050105 4242   00   1     0.00000000E+00    # coeffBB_VRRNP
 01050105 4142   00   1     0.00000000E+00    # coeffBB_VLRNP
 01050105 4343   00   1     0.00000000E+00    # coeffBB_TLLNP
 01050105 4444   00   1     0.00000000E+00    # coeffBB_TRRNP
 03050305 3131   00   1     0.00000000E+00    # coeffBsBs_SLLNP
 03050305 3232   00   1     0.00000000E+00    # coeffBsBs_SRRNP
 03050305 3132   00   1     0.00000000E+00    # coeffBsBs_SLRNP
 03050305 4141   00   1     0.00000000E+00    # coeffBsBs_VLLNP
 03050305 4242   00   1     0.00000000E+00    # coeffBsBs_VRRNP
 03050305 4142   00   1     0.00000000E+00    # coeffBsBs_VLRNP
 03050305 4343   00   1     0.00000000E+00    # coeffBsBs_TLLNP
 03050305 4444   00   1     0.00000000E+00    # coeffBsBs_TRRNP
 01030103 3131   00   0     0.00000000E+00    # coeffKK_SLLSM
 01030103 3232   00   0     0.00000000E+00    # coeffKK_SRRSM
 01030103 3132   00   0     0.00000000E+00    # coeffKK_SLRSM
 01030103 4141   00   0     0.00000000E+00    # coeffKK_VLLSM
 01030103 4242   00   0     0.00000000E+00    # coeffKK_VRRSM
 01030103 4142   00   0     0.00000000E+00    # coeffKK_VLRSM
 01030103 4343   00   0     0.00000000E+00    # coeffKK_TLLSM
 01030103 4444   00   0     0.00000000E+00    # coeffKK_TRRSM
 01050105 3131   00   0     0.00000000E+00    # coeffBB_SLLSM
 01050105 3232   00   0     0.00000000E+00    # coeffBB_SRRSM
 01050105 3132   00   0     0.00000000E+00    # coeffBB_SLRSM
 01050105 4141   00   0     0.00000000E+00    # coeffBB_VLLSM
 01050105 4242   00   0     0.00000000E+00    # coeffBB_VRRSM
 01050105 4142   00   0     0.00000000E+00    # coeffBB_VLRSM
 01050105 4343   00   0     0.00000000E+00    # coeffBB_TLLSM
 01050105 4444   00   0     0.00000000E+00    # coeffBB_TRRSM
 03050305 3131   00   0     0.00000000E+00    # coeffBsBs_SLLSM
 03050305 3232   00   0     0.00000000E+00    # coeffBsBs_SRRSM
 03050305 3132   00   0     0.00000000E+00    # coeffBsBs_SLRSM
 03050305 4141   00   0     0.00000000E+00    # coeffBsBs_VLLSM
 03050305 4242   00   0     0.00000000E+00    # coeffBsBs_VRRSM
 03050305 4142   00   0     0.00000000E+00    # coeffBsBs_VLRSM
 03050305 4343   00   0     0.00000000E+00    # coeffBsBs_TLLSM
 03050305 4444   00   0     0.00000000E+00    # coeffBsBs_TRRSM
Block IMFWCOEF Q=  1.60000000E+02  # Im(Wilson coefficients) at scale Q 
     0305 4422   00   0     0.00000000E+00    # coeffC7sm
     0305 4422   00   2     0.00000000E+00    # coeffC7
     0305 4322   00   2     0.00000000E+00    # coeffC7p
     0305 4422   00   1     0.00000000E+00    # coeffC7NP
     0305 4322   00   1     0.00000000E+00    # coeffC7pNP
     0305 6421   00   0     0.00000000E+00    # coeffC8sm
     0305 6421   00   2     0.00000000E+00    # coeffC8
     0305 6321   00   2     0.00000000E+00    # coeffC8p
     0305 6421   00   1     0.00000000E+00    # coeffC8NP
     0305 6321   00   1     0.00000000E+00    # coeffC8pNP
 03051111 4133   00   0     0.00000000E+00    # coeffC9eeSM
 03051111 4133   00   2     0.00000000E+00    # coeffC9ee
 03051111 4233   00   2     0.00000000E+00    # coeffC9Pee
 03051111 4133   00   1     0.00000000E+00    # coeffC9eeNP
 03051111 4233   00   1     0.00000000E+00    # coeffC9PeeNP
 03051111 4137   00   0     0.00000000E+00    # coeffC10eeSM
 03051111 4137   00   2     0.00000000E+00    # coeffC10ee
 03051111 4237   00   2     0.00000000E+00    # coeffC10Pee
 03051111 4137   00   1     0.00000000E+00    # coeffC10eeNP
 03051111 4237   00   1     0.00000000E+00    # coeffC10PeeNP
 03051313 4133   00   0     0.00000000E+00    # coeffC9mumuSM
 03051313 4133   00   2     0.00000000E+00    # coeffC9mumu
 03051313 4233   00   2     0.00000000E+00    # coeffC9Pmumu
 03051313 4133   00   1     0.00000000E+00    # coeffC9mumuNP
 03051313 4233   00   1     0.00000000E+00    # coeffC9PmumuNP
 03051313 4137   00   0     0.00000000E+00    # coeffC10mumuSM
 03051313 4137   00   2     0.00000000E+00    # coeffC10mumu
 03051313 4237   00   2     0.00000000E+00    # coeffC10Pmumu
 03051313 4137   00   1     0.00000000E+00    # coeffC10mumuNP
 03051313 4237   00   1     0.00000000E+00    # coeffC10PmumuNP
 03051212 4141   00   0     0.00000000E+00    # coeffCLnu1nu1SM
 03051212 4141   00   2     0.00000000E+00    # coeffCLnu1nu1
 03051212 4241   00   2     0.00000000E+00    # coeffCLPnu1nu1
 03051212 4141   00   1     0.00000000E+00    # coeffCLnu1nu1NP
 03051212 4241   00   1     0.00000000E+00    # coeffCLPnu1nu1NP
 03051414 4141   00   0     0.00000000E+00    # coeffCLnu2nu2SM
 03051414 4141   00   2     0.00000000E+00    # coeffCLnu2nu2
 03051414 4241   00   2     0.00000000E+00    # coeffCLPnu2nu2
 03051414 4141   00   1     0.00000000E+00    # coeffCLnu2nu2NP
 03051414 4241   00   1     0.00000000E+00    # coeffCLPnu2nu2NP
 03051616 4141   00   0     0.00000000E+00    # coeffCLnu3nu3SM
 03051616 4141   00   2     0.00000000E+00    # coeffCLnu3nu3
 03051616 4241   00   2     0.00000000E+00    # coeffCLPnu3nu3
 03051616 4141   00   1     0.00000000E+00    # coeffCLnu3nu3NP
 03051616 4241   00   1     0.00000000E+00    # coeffCLPnu3nu3NP
 03051212 4142   00   0     0.00000000E+00    # coeffCRnu1nu1SM
 03051212 4142   00   2     0.00000000E+00    # coeffCRnu1nu1
 03051212 4242   00   2     0.00000000E+00    # coeffCRPnu1nu1
 03051212 4142   00   1     0.00000000E+00    # coeffCRnu1nu1NP
 03051212 4242   00   1     0.00000000E+00    # coeffCRPnu1nu1NP
 03051414 4142   00   0     0.00000000E+00    # coeffCRnu2nu2SM
 03051414 4142   00   2     0.00000000E+00    # coeffCRnu2nu2
 03051414 4242   00   2     0.00000000E+00    # coeffCRPnu2nu2
 03051414 4142   00   1     0.00000000E+00    # coeffCRnu2nu2NP
 03051414 4242   00   1     0.00000000E+00    # coeffCRPnu2nu2NP
 03051616 4142   00   0     0.00000000E+00    # coeffCRnu3nu3SM
 03051616 4142   00   2     0.00000000E+00    # coeffCRnu3nu3
 03051616 4242   00   2     0.00000000E+00    # coeffCRPnu3nu3
 03051616 4142   00   1     0.00000000E+00    # coeffCRnu3nu3NP
 03051616 4242   00   1     0.00000000E+00    # coeffCRPnu3nu3NP
 01030103 3131   00   2     0.00000000E+00    # coeffKK_SLL
 01030103 3232   00   2     0.00000000E+00    # coeffKK_SRR
 01030103 3132   00   2     0.00000000E+00    # coeffKK_SLR
 01030103 4141   00   2     0.00000000E+00    # coeffKK_VLL
 01030103 4242   00   2     0.00000000E+00    # coeffKK_VRR
 01030103 4142   00   2     0.00000000E+00    # coeffKK_VLR
 01030103 4343   00   2     0.00000000E+00    # coeffKK_TLL
 01030103 4444   00   2     0.00000000E+00    # coeffKK_TRR
 01050105 3131   00   2     0.00000000E+00    # coeffBB_SLL
 01050105 3232   00   2     0.00000000E+00    # coeffBB_SRR
 01050105 3132   00   2     0.00000000E+00    # coeffBB_SLR
 01050105 4141   00   2     0.00000000E+00    # coeffBB_VLL
 01050105 4242   00   2     0.00000000E+00    # coeffBB_VRR
 01050105 4142   00   2     0.00000000E+00    # coeffBB_VLR
 01050105 4343   00   2     0.00000000E+00    # coeffBB_TLL
 01050105 4444   00   2     0.00000000E+00    # coeffBB_TRR
 03050305 3131   00   2     0.00000000E+00    # coeffBsBs_SLL
 03050305 3232   00   2     0.00000000E+00    # coeffBsBs_SRR
 03050305 3132   00   2     0.00000000E+00    # coeffBsBs_SLR
 03050305 4141   00   2     0.00000000E+00    # coeffBsBs_VLL
 03050305 4242   00   2     0.00000000E+00    # coeffBsBs_VRR
 03050305 4142   00   2     0.00000000E+00    # coeffBsBs_VLR
 03050305 4343   00   2     0.00000000E+00    # coeffBsBs_TLL
 03050305 4444   00   2     0.00000000E+00    # coeffBsBs_TRR
 01030103 3131   00   1     0.00000000E+00    # coeffKK_SLLNP
 01030103 3232   00   1     0.00000000E+00    # coeffKK_SRRNP
 01030103 3132   00   1     0.00000000E+00    # coeffKK_SLRNP
 01030103 4141   00   1     0.00000000E+00    # coeffKK_VLLNP
 01030103 4242   00   1     0.00000000E+00    # coeffKK_VRRNP
 01030103 4142   00   1     0.00000000E+00    # coeffKK_VLRNP
 01030103 4343   00   1     0.00000000E+00    # coeffKK_TLLNP
 01030103 4444   00   1     0.00000000E+00    # coeffKK_TRRNP
 01050105 3131   00   1     0.00000000E+00    # coeffBB_SLLNP
 01050105 3232   00   1     0.00000000E+00    # coeffBB_SRRNP
 01050105 3132   00   1     0.00000000E+00    # coeffBB_SLRNP
 01050105 4141   00   1     0.00000000E+00    # coeffBB_VLLNP
 01050105 4242   00   1     0.00000000E+00    # coeffBB_VRRNP
 01050105 4142   00   1     0.00000000E+00    # coeffBB_VLRNP
 01050105 4343   00   1     0.00000000E+00    # coeffBB_TLLNP
 01050105 4444   00   1     0.00000000E+00    # coeffBB_TRRNP
 03050305 3131   00   1     0.00000000E+00    # coeffBsBs_SLLNP
 03050305 3232   00   1     0.00000000E+00    # coeffBsBs_SRRNP
 03050305 3132   00   1     0.00000000E+00    # coeffBsBs_SLRNP
 03050305 4141   00   1     0.00000000E+00    # coeffBsBs_VLLNP
 03050305 4242   00   1     0.00000000E+00    # coeffBsBs_VRRNP
 03050305 4142   00   1     0.00000000E+00    # coeffBsBs_VLRNP
 03050305 4343   00   1     0.00000000E+00    # coeffBsBs_TLLNP
 03050305 4444   00   1     0.00000000E+00    # coeffBsBs_TRRNP
 01030103 3131   00   0     0.00000000E+00    # coeffKK_SLLSM
 01030103 3232   00   0     0.00000000E+00    # coeffKK_SRRSM
 01030103 3132   00   0     0.00000000E+00    # coeffKK_SLRSM
 01030103 4141   00   0     0.00000000E+00    # coeffKK_VLLSM
 01030103 4242   00   0     0.00000000E+00    # coeffKK_VRRSM
 01030103 4142   00   0     0.00000000E+00    # coeffKK_VLRSM
 01030103 4343   00   0     0.00000000E+00    # coeffKK_TLLSM
 01030103 4444   00   0     0.00000000E+00    # coeffKK_TRRSM
 01050105 3131   00   0     0.00000000E+00    # coeffBB_SLLSM
 01050105 3232   00   0     0.00000000E+00    # coeffBB_SRRSM
 01050105 3132   00   0     0.00000000E+00    # coeffBB_SLRSM
 01050105 4141   00   0     0.00000000E+00    # coeffBB_VLLSM
 01050105 4242   00   0     0.00000000E+00    # coeffBB_VRRSM
 01050105 4142   00   0     0.00000000E+00    # coeffBB_VLRSM
 01050105 4343   00   0     0.00000000E+00    # coeffBB_TLLSM
 01050105 4444   00   0     0.00000000E+00    # coeffBB_TRRSM
 03050305 3131   00   0     0.00000000E+00    # coeffBsBs_SLLSM
 03050305 3232   00   0     0.00000000E+00    # coeffBsBs_SRRSM
 03050305 3132   00   0     0.00000000E+00    # coeffBsBs_SLRSM
 03050305 4141   00   0     0.00000000E+00    # coeffBsBs_VLLSM
 03050305 4242   00   0     0.00000000E+00    # coeffBsBs_VRRSM
 03050305 4142   00   0     0.00000000E+00    # coeffBsBs_VLRSM
 03050305 4343   00   0     0.00000000E+00    # coeffBsBs_TLLSM
 03050305 4444   00   0     0.00000000E+00    # coeffBsBs_TRRSM
DECAY         2     0.00000000E+00   # Fu_1
#    BR                NDA      ID1      ID2
DECAY         4     3.82261015E-13   # Fu_2
#    BR                NDA      ID1      ID2
#    BR                NDA      ID1      ID2       ID3
     3.05502575E-02    3            2         -1          1   # BR(Fu_2 -> Fu_1 Fd_1^* Fd_1 )
     5.45954987E-01    3            2         -1          3   # BR(Fu_2 -> Fu_1 Fd_1^* Fd_2 )
     1.56486313E-03    3            2         -3          1   # BR(Fu_2 -> Fu_1 Fd_2^* Fd_1 )
     2.79270154E-02    3            2         -3          3   # BR(Fu_2 -> Fu_1 Fd_2^* Fd_2 )
     1.07295183E-02    3            1        -11         12   # BR(Fu_2 -> Fd_1 Fe_1^* Fv_1 )
     1.01645236E-02    3            1        -13         14   # BR(Fu_2 -> Fd_1 Fe_2^* Fv_2 )
     1.91744771E-01    3            3        -11         12   # BR(Fu_2 -> Fd_2 Fe_1^* Fv_1 )
     1.81364064E-01    3            3        -13         14   # BR(Fu_2 -> Fd_2 Fe_2^* Fv_2 )
DECAY         6     1.56779572E+00   # Fu_3
#    BR                NDA      ID1      ID2
     1.67597777E-03    2            3         24   # BR(Fu_3 -> Fd_2 VWp )
     9.98288583E-01    2            5         24   # BR(Fu_3 -> Fd_3 VWp )
DECAY        11     0.00000000E+00   # Fe_1
#    BR                NDA      ID1      ID2
DECAY        13     1.21990818E-18   # Fe_2
#    BR                NDA      ID1      ID2
#    BR                NDA      ID1      ID2       ID3
     2.63969808E-01    3           11        -12         14   # BR(Fe_2 -> Fe_1 Fv_1^* Fv_2 )
     7.36026661E-01    3           14         -2          1   # BR(Fe_2 -> Fv_2 Fu_1^* Fd_1 )
DECAY        15     2.16913555E-12   # Fe_3
#    BR                NDA      ID1      ID2
#    BR                NDA      ID1      ID2       ID3
     1.99664865E-01    3           11        -12         16   # BR(Fe_3 -> Fe_1 Fv_1^* Fv_3 )
     1.94368619E-01    3           13        -14         16   # BR(Fe_3 -> Fe_2 Fv_2^* Fv_3 )
     5.68537963E-01    3           16         -2          1   # BR(Fe_3 -> Fv_3 Fu_1^* Fd_1 )
     2.97768355E-02    3           16         -2          3   # BR(Fe_3 -> Fv_3 Fu_1^* Fd_2 )
     4.57258365E-04    3           16         -4          1   # BR(Fe_3 -> Fv_3 Fu_2^* Fd_1 )
     7.19445852E-03    3           16         -4          3   # BR(Fe_3 -> Fv_3 Fu_2^* Fd_2 )
DECAY         1     9.45701873E-27   # Fd_1
#    BR                NDA      ID1      ID2
#    BR                NDA      ID1      ID2       ID3
     1.00000000E+00    3            2        -12         11   # BR(Fd_1 -> Fu_1 Fv_1^* Fe_1 )
DECAY         3     3.60566993E-20   # Fd_2
#    BR                NDA      ID1      ID2
#    BR                NDA      ID1      ID2       ID3
     7.34967004E-01    3            1         -2          2   # BR(Fd_2 -> Fd_1 Fu_1^* Fu_1 )
     2.65032996E-01    3            2        -12         11   # BR(Fd_2 -> Fu_1 Fv_1^* Fe_1 )
DECAY         5     1.70356976E-13   # Fd_3
#    BR                NDA      ID1      ID2
#    BR                NDA      ID1      ID2       ID3
     6.12951287E-03    3            1         -2          2   # BR(Fd_3 -> Fd_1 Fu_1^* Fu_1 )
     4.52963796E-01    3            1         -2          4   # BR(Fd_3 -> Fd_1 Fu_1^* Fu_2 )
     1.67717286E-04    3            1         -4          2   # BR(Fd_3 -> Fd_1 Fu_2^* Fu_1 )
     8.80823256E-03    3            1         -4          4   # BR(Fd_3 -> Fd_1 Fu_2^* Fu_2 )
     3.27013500E-04    3            3         -2          2   # BR(Fd_3 -> Fd_2 Fu_1^* Fu_1 )
     2.41186489E-02    3            3         -2          4   # BR(Fd_3 -> Fd_2 Fu_1^* Fu_2 )
     3.11230926E-03    3            3         -4          2   # BR(Fd_3 -> Fd_2 Fu_2^* Fu_1 )
     1.62627665E-01    3            3         -4          4   # BR(Fd_3 -> Fd_2 Fu_2^* Fu_2 )
     2.15252618E-03    3            2        -12         11   # BR(Fd_3 -> Fu_1 Fv_1^* Fe_1 )
     2.14490780E-03    3            2        -14         13   # BR(Fd_3 -> Fu_1 Fv_2^* Fe_2 )
     5.83957751E-04    3            2        -16         15   # BR(Fd_3 -> Fu_1 Fv_3^* Fe_3 )
     1.59069889E-01    3            4        -12         11   # BR(Fd_3 -> Fu_2 Fv_1^* Fe_1 )
     1.58104211E-01    3            4        -14         13   # BR(Fd_3 -> Fu_2 Fv_2^* Fe_2 )
     1.96896118E-02    3            4        -16         15   # BR(Fd_3 -> Fu_2 Fv_3^* Fe_3 )
DECAY        35     6.13765199E-46   # hh_1
#    BR                NDA      ID1      ID2
     9.99980836E-01    2           21         21   # BR(hh_1 -> VG VG )
DECAY        25     2.21525634E-02   # hh_2
#    BR                NDA      ID1      ID2
     4.77444606E-04    2           22         22   # BR(hh_2 -> VP VP )
     1.55373590E-02    2           21         21   # BR(hh_2 -> VG VG )
     4.42155936E-03    2           23         23   # BR(hh_2 -> VZ VZ )
     4.03336783E-02    2          -24         24   # BR(hh_2 -> VWp^* VWp_virt )
     2.92531793E-04    2          -51         51   # BR(hh_2 -> eta^* eta )
     1.00739055E-01    2           -5          5   # BR(hh_2 -> Fd_3^* Fd_3 )
     1.16969825E-02    2          -15         15   # BR(hh_2 -> Fe_3^* Fe_3 )
     4.75189545E-03    2           -4          4   # BR(hh_2 -> Fu_2^* Fu_2 )
     4.85352987E-01    2           23         31   # BR(hh_2 -> VZ VZp )
     3.36318249E-01    2           31         31   # BR(hh_2 -> VZp VZp )
DECAY        31     5.16938605E-05   # VZp
#    BR                NDA      ID1      ID2
     9.99999985E-01    2          -50         50   # BR(VZp -> chi^* chi )
DECAY        21     0.00000000E+00   # VG
DECAY        22     0.00000000E+00   # VP
DECAY        23     2.49520000E+00   # VZ
DECAY        24     2.14100000E+00   # VWp
DECAY        12     0.00000000E+00   # Fv_1
DECAY        14     0.00000000E+00   # Fv_2
DECAY        16     0.00000000E+00   # Fv_3
DECAY         0     0.00000000E+00   # Hp_1
DECAY        50     0.00000000E+00   # chi_1
DECAY        51     0.00000000E+00   # eta_1
DECAY         0     0.00000000E+00   # Ah_1
DECAY         0     0.00000000E+00   # Ah_2
DECAY        111     6.86463262E-03   # VZp
#    BR                NDA      ID1      ID2
     1.0E+00    2          31         22   # BR(VZp -> chi^* chi )
DECAY        221     6.86463262E-03   # VZp
#    BR                NDA      ID1      ID2
     1.0E+00    2          31         22   # BR(VZp -> chi^* chi )
DECAY        223     6.86463262E-03   # VZp
#    BR                NDA      ID1      ID2
     1.0E+00    2          111        22   # BR(VZp -> chi^* chi )
]]>
</slha>
<MGGenerationInfo>
#  Number of Events        :       2565
#  Integrated weight (pb)  :       85212000000.0
</MGGenerationInfo>
</header>
<init>
9 11 7.535490e+01 5.110000e-04 0 0 247000 247000 -4 1
8.521200e+10 1.352900e+08 8.521200e+10 1200
<generator name='MadGraph5_aMC@NLO' version='2.6.4'>please cite 1405.0301 </generator>
</init>
<event>
 4   1200 +8.5212000e+10 3.36405700e-02 7.81665300e-03            nan
       50 -1    0    0    0    0 +3.0496065397e-04 +2.0557924149e-02 +1.0535694115e+01 1.0535715359e+01 4.9935713700e-03 0.0000e+00 0.0000e+00
       11 -1    0    0    0    0 +3.6152853592e-20 +2.4371262727e-18 +1.2489985244e-15 5.1100000000e-04 5.1099893000e-04 0.0000e+00 1.0000e+00
       50  1    1    2    0    0 +3.8525778431e-03 +5.1240046890e-02 +9.3096684474e+00 9.3098115943e+00 4.9935713700e-03 0.0000e+00 0.0000e+00
       11  1    1    2    0    0 -3.5476171892e-03 -3.0682122741e-02 +1.2260256673e+00 1.2264147652e+00 5.1099893000e-04 0.0000e+00 1.0000e+00
<vert_displacement>
208.71915923007603
</vert_displacement>
</event>
<event>
 4   1200 +8.5212000e+10 3.58824300e-02 7.81665300e-03            nan
       50 -1    0    0    0    0 +5.7095708708e-03 -2.5686254137e-02 +1.5434378715e+01 1.5434401952e+01 4.9935713700e-03 0.0000e+00 0.0000e+00
       11 -1    0    0    0    0 -2.1561710854e-19 +9.7001963394e-19 -5.8286624088e-16 5.1100000000e-04 5.1099893000e-04 0.0000e+00 -1.0000e+00
       50  1    1    2    0    0 +3.5428451943e-02 -4.7406563956e-03 +1.4079865274e+01 1.4079911531e+01 4.9935713700e-03 0.0000e+00 0.0000e+00
       11  1    1    2    0    0 -2.9718881072e-02 -2.0945597741e-02 +1.3545134403e+00 1.3550014210e+00 5.1099893000e-04 0.0000e+00 -1.0000e+00
<vert_displacement>
345.46687739690469
</vert_displacement>
</event>
<event>
 4   1200 +8.5212000e+10 1.54730100e-02 7.81665300e-03            nan
       50 -1    0    0    0    0 -1.4151361219e-02 -1.9167836408e-02 +1.1071319897e+01 1.1071346660e+01 4.9935713700e-03 0.0000e+00 0.0000e+00
       11 -1    0    0    0    0 +2.8381675935e-19 +3.8442614310e-19 -2.2204409076e-16 5.1100000000e-04 5.1099893000e-04 0.0000e+00 1.0000e+00
       50  1    1    2    0    0 -1.2903027965e-02 -4.1847303402e-03 +1.0857329726e+01 1.0857339348e+01 4.9935713700e-03 0.0000e+00 0.0000e+00
       11  1    1    2    0    0 -1.2483332541e-03 -1.4983106067e-02 +2.1399017052e-01 2.1451831158e-01 5.1099893000e-04 0.0000e+00 1.0000e+00
<vert_displacement>
301.13793605558288
</vert_displacement>
</event>
<event>
 4   1200 +8.5212000e+10 1.42194800e-02 7.81665300e-03            nan
       50 -1    0    0    0    0 -6.8185387631e-02 -3.4093444646e-02 +2.6490543942e+01 2.6490654105e+01 4.9935713700e-03 0.0000e+00 0.0000e+00
       11 -1    0    0    0    0 -5.6438565830e-18 -2.8219904394e-18 +2.1926813942e-15 5.1100000000e-04 5.1099893000e-04 0.0000e+00 1.0000e+00
       50  1    1    2    0    0 -5.8397396528e-02 -4.3358120628e-02 +2.6315959318e+01 2.6316060304e+01 4.9935713700e-03 0.0000e+00 0.0000e+00
       11  1    1    2    0    0 -9.7879911024e-03 +9.2646759821e-03 +1.7458462442e-01 1.7510480060e-01 5.1099893000e-04 0.0000e+00 1.0000e+00
<vert_displacement>
154.35671647042801
</vert_displacement>
</event>
<event>
 4   1200 +8.5212000e+10 1.01740800e-02 7.81665300e-03            nan
       50 -1    0    0    0    0 +3.3980064832e-02 -2.2522117121e-02 +1.0504077103e+01 1.0504157397e+01 4.9935713700e-03 0.0000e+00 0.0000e+00
       11 -1    0    0    0    0 +4.9382828284e-18 -3.2731127733e-18 +1.5265451624e-15 5.1100000000e-04 5.1099893000e-04 0.0000e+00 1.0000e+00
       50  1    1    2    0    0 +4.0428911885e-02 -1.6551401290e-02 +1.0426607500e+01 1.0426700213e+01 4.9935713700e-03 0.0000e+00 0.0000e+00
       11  1    1    2    0    0 -6.4488470523e-03 -5.9707158317e-03 +7.7469603327e-02 7.7968183482e-02 5.1099893000e-04 0.0000e+00 1.0000e+00
<vert_displacement>
374.29653358290000
</vert_displacement>
</event>
<event>
 4   1200 +8.5212000e+10 1.13277100e-02 7.81665300e-03            nan
       50 -1    0    0    0    0 -1.8759664795e-02 -1.6107486251e-03 +6.6778135092e+00 6.6778419207e+00 4.9935713700e-03 0.0000e+00 0.0000e+00
       11 -1    0    0    0    0 -9.1617231982e-19 -7.8664694736e-20 +3.2612671712e-16 5.1100000000e-04 5.1099893000e-04 0.0000e+00 1.0000e+00
       50  1    1    2    0    0 -2.8287738314e-02 -4.2340458561e-03 +6.5750354557e+00 6.5750995660e+00 4.9935713700e-03 0.0000e+00 0.0000e+00
       11  1    1    2    0    0 +9.5280735188e-03 +2.6232972310e-03 +1.0277805342e-01 1.0325335471e-01 5.1099893000e-04 0.0000e+00 1.0000e+00
<vert_displacement>
417.20532317799911
</vert_displacement>
</event>
<event>
 4   1200 +8.5212000e+10 3.18565400e-02 7.81665300e-03            nan
       50 -1    0    0    0    0 +6.5557530407e-03 +2.3454306396e-02 +1.3930267648e+01 1.3930289831e+01 4.9935713700e-03 0.0000e+00 0.0000e+00
       11 -1    0    0    0    0 -5.0289049660e-19 -1.7991751242e-18 -1.0685880282e-15 5.1100000000e-04 5.1099893000e-04 0.0000e+00 1.0000e+00
       50  1    1    2    0    0 -1.0420464553e-03 -8.9594225810e-03 +1.2882783863e+01 1.2882787988e+01 4.9935713700e-03 0.0000e+00 0.0000e+00
       11  1    1    2    0    0 +7.5977994960e-03 +3.2413728977e-02 +1.0474837857e+00 1.0480128428e+00 5.1099893000e-04 0.0000e+00 1.0000e+00
<vert_displacement>
57.475922916570390
</vert_displacement>
</event>
<event>
 4   1200 +8.5212000e+10 6.62027700e-03 7.81665300e-03            nan
       50 -1    0    0    0    0 -5.1218975750e-02 -3.0744619984e-02 +1.5872559741e+01 1.5872672940e+01 4.9935713700e-03 0.0000e+00 0.0000e+00
       11 -1    0    0    0    0 -2.6869051547e-19 -1.6128373655e-19 +8.3266137131e-17 5.1100000000e-04 5.1099893000e-04 0.0000e+00 1.0000e+00
       50  1    1    2    0    0 -4.6818027978e-02 -3.0922990300e-02 +1.5854065628e+01 1.5854165699e+01 4.9935713700e-03 0.0000e+00 0.0000e+00
       11  1    1    2    0    0 -4.4009477730e-03 +1.7837031635e-04 +1.8494112875e-02 1.9018240934e-02 5.1099893000e-04 0.0000e+00 1.0000e+00
<vert_displacement>
113.55324789547058
</vert_displacement>
</event>
<event>
 4   1200 +8.5212000e+10 1.84572600e-02 7.81665300e-03            nan
       50 -1    0    0    0    0 +7.9470503590e-03 +9.7182571195e-03 +7.2760544716e+00 7.2760670152e+00 4.9935713700e-03 0.0000e+00 0.0000e+00
       11 -1    0    0    0    0 +1.8946964123e-19 +2.3169787614e-19 +1.7347208939e-16 5.1100000000e-04 5.1099893000e-04 0.0000e+00 1.0000e+00
       50  1    1    2    0    0 +2.4513934299e-02 +1.4712645534e-02 +6.9526491965e+00 6.9527097725e+00 4.9935713700e-03 0.0000e+00 0.0000e+00
       11  1    1    2    0    0 -1.6566883940e-02 -4.9943884140e-03 +3.2340527511e-01 3.2386824273e-01 5.1099893000e-04 0.0000e+00 1.0000e+00
<vert_displacement>
55.232435719091939
</vert_displacement>
</event>
<event>
 4   1200 +8.5212000e+10 8.33638300e-03 7.81665300e-03            nan
       50 -1    0    0    0    0 +3.5365859950e-02 -4.0045847260e-02 +1.9267075169e+01 1.9267149891e+01 4.9935713700e-03 0.0000e+00 0.0000e+00
       11 -1    0    0    0    0 +2.8784947892e-18 -3.2594078819e-18 +1.5681839932e-15 5.1100000000e-04 5.1099893000e-04 0.0000e+00 1.0000e+00
       50  1    1    2    0    0 +3.3093938080e-02 -4.6260243167e-02 +1.9223365528e+01 1.9223450325e+01 4.9935713700e-03 0.0000e+00 0.0000e+00
       11  1    1    2    0    0 +2.2719218697e-03 +6.2143959067e-03 +4.3709641295e-02 4.4210566695e-02 5.1099893000e-04 0.0000e+00 1.0000e+00
<vert_displacement>
211.47085072277443
</vert_displacement>
</event>
<event>
 4   1200 +8.5212000e+10 7.60922900e-03 7.81665300e-03            nan
       50 -1    0    0    0    0 -9.3922299759e-02 +3.6640394110e-02 +3.3089354032e+01 3.3089507991e+01 4.9935713700e-03 0.0000e+00 0.0000e+00
       11 -1    0    0    0    0 +5.5541521015e-18 -2.1667519052e-18 -1.9567589987e-15 5.1100000000e-04 5.1099893000e-04 0.0000e+00 1.0000e+00
       50  1    1    2    0    0 -9.4389205186e-02 +4.2318885039e-02 +3.3057059244e+01 3.3057221465e+01 4.9935713700e-03 0.0000e+00 0.0000e+00
       11  1    1    2    0    0 +4.6690542685e-04 -5.6784909289e-03 +3.2294787980e-02 3.2797525982e-02 5.1099893000e-04 0.0000e+00 1.0000e+00
<vert_displacement>
241.72132151678494
</vert_displacement>
</event>
<event>
 4   1200 +8.5212000e+10 1.50221500e-02 7.81665300e-03            nan
       50 -1    0    0    0    0 -3.4795077020e-03 -5.8990564011e-03 +1.4277620515e+01 1.4277623031e+01 4.9935713700e-03 0.0000e+00 0.0000e+00
       11 -1    0    0    0    0 -3.1115013066e-19 -5.2751490359e-19 +1.2767563314e-15 5.1100000000e-04 5.1099893000e-04 0.0000e+00 1.0000e+00
       50  1    1    2    0    0 -9.7635664825e-03 -1.8490640013e-02 +1.4078414483e+01 1.4078430897e+01 4.9935713700e-03 0.0000e+00 0.0000e+00
       11  1    1    2    0    0 +6.2840587805e-03 +1.2591583612e-02 +1.9920603197e-01 1.9970313384e-01 5.1099893000e-04 0.0000e+00 1.0000e+00
<vert_displacement>
143.23334553663514
</vert_displacement>
</event>
<event>
 4   1200 +8.5212000e+10 1.39738500e-02 7.81665300e-03            nan
       50 -1    0    0    0    0 -2.4652107777e-02 +6.1007640682e-03 +8.6823571799e+00 8.6823957570e+00 4.9935713700e-03 0.0000e+00 0.0000e+00
       11 -1    0    0    0    0 -1.0638944879e-18 +2.6328658478e-19 +3.7469866794e-16 5.1100000000e-04 5.1099893000e-04 0.0000e+00 -1.0000e+00
       50  1    1    2    0    0 -1.5103388708e-02 -3.4069528546e-03 +8.5123760484e+00 8.5123915937e+00 4.9935713700e-03 0.0000e+00 0.0000e+00
       11  1    1    2    0    0 -9.5487190683e-03 +9.5077169227e-03 +1.6998113158e-01 1.7051516335e-01 5.1099893000e-04 0.0000e+00 -1.0000e+00
<vert_displacement>
313.51515654151882
</vert_displacement>
</event>
<event>
 4   1200 +8.5212000e+10 8.36116000e-03 7.81665300e-03            nan
       50 -1    0    0    0    0 -1.3918403360e-02 +2.6262177017e-02 +1.4987226312e+01 1.4987256616e+01 4.9935713700e-03 0.0000e+00 0.0000e+00
       11 -1    0    0    0    0 -2.0685335943e-18 +3.9030479298e-18 +2.2273805630e-15 5.1100000000e-04 5.1099893000e-04 0.0000e+00 1.0000e+00
       50  1    1    2    0    0 -9.9518812064e-03 +2.0747625305e-02 +1.4943102749e+01 1.4943121300e+01 4.9935713700e-03 0.0000e+00 0.0000e+00
       11  1    1    2    0    0 -3.9665221532e-03 +5.5145517120e-03 +4.4123563114e-02 4.4646315866e-02 5.1099893000e-04 0.0000e+00 1.0000e+00
<vert_displacement>
44.601744206134136
</vert_displacement>
</event>
<event>
 4   1200 +8.5212000e+10 1.04083600e-02 7.81665300e-03            nan
       50 -1    0    0    0    0 -1.8315207499e-03 -9.6419536649e-03 +5.6285940218e+00 5.6286047933e+00 4.9935713700e-03 0.0000e+00 0.0000e+00
       11 -1    0    0    0    0 +1.4902030252e-19 +7.8451027765e-19 -4.5796630147e-16 5.1100000000e-04 5.1099893000e-04 0.0000e+00 1.0000e+00
       50  1    1    2    0    0 -4.8073316264e-03 -8.7558801195e-04 +5.5457732578e+00 5.5457776587e+00 4.9935713700e-03 0.0000e+00 0.0000e+00
       11  1    1    2    0    0 +2.9758108765e-03 -8.7663656529e-03 +8.2820764041e-02 8.3338134689e-02 5.1099893000e-04 0.0000e+00 1.0000e+00
<vert_displacement>
117.53962920699863
</vert_displacement>
</event>
<event>
 4   1200 +8.5212000e+10 3.59329800e-02 7.81665300e-03            nan
       50 -1    0    0    0    0 +1.6461010972e-02 +4.3418628150e-03 +5.9244300975e+00 5.9244566614e+00 4.9935713700e-03 0.0000e+00 0.0000e+00
       11 -1    0    0    0    0 +2.1207577566e-18 +5.5938479471e-19 +7.6327517820e-16 5.1100000000e-04 5.1099893000e-04 0.0000e+00 1.0000e+00
       50  1    1    2    0    0 -1.0236376694e-02 -2.5096287809e-02 +4.1543788471e+00 4.1544702608e+00 4.9935713700e-03 0.0000e+00 0.0000e+00
       11  1    1    2    0    0 +2.6697387666e-02 +2.9438150624e-02 +1.7700512504e+00 1.7704974006e+00 5.1099893000e-04 0.0000e+00 1.0000e+00
<vert_displacement>
92.175126645706428
</vert_displacement>
</event>
<event>
 4   1200 +8.5212000e+10 7.71883300e-03 7.81665300e-03            nan
       50 -1    0    0    0    0 +6.2595711818e-02 -1.8914162468e-02 +2.0436555677e+01 2.0436660902e+01 4.9935713700e-03 0.0000e+00 0.0000e+00
       11 -1    0    0    0    0 +6.5885007164e-18 -1.9908068676e-18 +2.1510460989e-15 5.1100000000e-04 5.1099893000e-04 0.0000e+00 1.0000e+00
       50  1    1    2    0    0 +6.1880749306e-02 -2.4736908966e-02 +2.0402596122e+01 2.0402705570e+01 4.9935713700e-03 0.0000e+00 0.0000e+00
       11  1    1    2    0    0 +7.1496251179e-04 +5.8227464982e-03 +3.3959555162e-02 3.4466332194e-02 5.1099893000e-04 0.0000e+00 1.0000e+00
<vert_displacement>
372.52524456219618
</vert_displacement>
</event>
<event>
 4   1200 +8.5212000e+10 2.01681100e-02 7.81665300e-03            nan
       50 -1    0    0    0    0 -1.5418256617e-03 +2.1454529423e-02 +8.9339443860e+00 8.9339716757e+00 4.9935713700e-03 0.0000e+00 0.0000e+00
       11 -1    0    0    0    0 -6.2270787363e-20 +8.6649902959e-19 +3.6082143720e-16 5.1100000000e-04 5.1099893000e-04 0.0000e+00 1.0000e+00
       50  1    1    2    0    0 +1.5553727118e-02 +1.0931819957e-02 +8.5432153062e+00 8.5432379182e+00 4.9935713700e-03 0.0000e+00 0.0000e+00
       11  1    1    2    0    0 -1.7095552780e-02 +1.0522709466e-02 +3.9072907986e-01 3.9124475754e-01 5.1099893000e-04 0.0000e+00 1.0000e+00
<vert_displacement>
135.62028675052406
</vert_displacement>
</event>
<event>
 4   1200 +8.5212000e+10 8.92811300e-03 7.81665300e-03            nan
       50 -1    0    0    0    0 +9.3031049303e-02 +8.1487309518e-02 +3.4760018537e+01 3.4760238903e+01 4.9935713700e-03 0.0000e+00 0.0000e+00
       11 -1    0    0    0    0 -6.7598459987e-18 -5.9210518136e-18 -2.5257413948e-15 5.1100000000e-04 5.1099893000e-04 0.0000e+00 1.0000e+00
       50  1    1    2    0    0 +8.5540814568e-02 +8.0465407635e-02 +3.4706360565e+01 3.4706559618e+01 4.9935713700e-03 0.0000e+00 0.0000e+00
       11  1    1    2    0    0 +7.4902347351e-03 +1.0219018827e-03 +5.3657972006e-02 5.4190284918e-02 5.1099893000e-04 0.0000e+00 1.0000e+00
<vert_displacement>
2.6445626024854478
</vert_displacement>
</event>
<event>
 4   1200 +8.5212000e+10 1.15602500e-02 7.81665300e-03            nan
       50 -1    0    0    0    0 -6.4581686803e-03 +4.6992237618e-03 +1.1904910470e+01 1.1904914197e+01 4.9935713700e-03 0.0000e+00 0.0000e+00
       11 -1    0    0    0    0 -1.8821030748e-19 +1.3694940360e-19 +3.4694461712e-16 5.1100000000e-04 5.1099893000e-04 0.0000e+00 1.0000e+00
       50  1    1    2    0    0 -7.5772857848e-04 +1.3424358916e-02 +1.1797572081e+01 1.1797580800e+01 4.9935713700e-03 0.0000e+00 0.0000e+00
       11  1    1    2    0    0 -5.7004401019e-03 -8.7251351544e-03 +1.0733838887e-01 1.0784439646e-01 5.1099893000e-04 0.0000e+00 1.0000e+00
<vert_displacement>
466.53680571859445
</vert_displacement>
</event>
<event>
 4   1200 +8.5212000e+10 9.53262100e-03 7.81665300e-03            nan
       50 -1    0    0    0    0 -1.4139630705e-02 -3.2596234781e-02 +1.3123111859e+01 1.3123160909e+01 4.9935713700e-03 0.0000e+00 0.0000e+00
       11 -1    0    0    0    0 -1.0167842254e-18 -2.3440030381e-18 +9.4368611205e-16 5.1100000000e-04 5.1099893000e-04 0.0000e+00 1.0000e+00
       50  1    1    2    0    0 -1.7038000807e-02 -2.4877109161e-02 +1.3058288441e+01 1.3058324208e+01 4.9935713700e-03 0.0000e+00 0.0000e+00
       11  1    1    2    0    0 +2.8983701013e-03 -7.7191256204e-03 +6.4823418372e-02 6.5347701864e-02 5.1099893000e-04 0.0000e+00 1.0000e+00
<vert_displacement>
115.10774960063775
</vert_displacement>
</event>
<event>
 4   1200 +8.5212000e+10 2.09361600e-02 7.81665300e-03            nan
       50 -1    0    0    0    0 +4.2367054686e-02 -2.8320395818e-02 +1.2970719155e+01 1.2970820226e+01 4.9935713700e-03 0.0000e+00 0.0000e+00
       11 -1    0    0    0    0 +1.3372208029e-18 -8.9386960491e-19 +4.0939158058e-16 5.1100000000e-04 5.1099893000e-04 0.0000e+00 1.0000e+00
       50  1    1    2    0    0 +5.8046939198e-02 -1.6324116198e-02 +1.2552691157e+01 1.2552836976e+01 4.9935713700e-03 0.0000e+00 0.0000e+00
       11  1    1    2    0    0 -1.5679884512e-02 -1.1996279620e-02 +4.1802799762e-01 4.1849425016e-01 5.1099893000e-04 0.0000e+00 1.0000e+00
<vert_displacement>
244.94871306466294
</vert_displacement>
</event>
<event>
 4   1200 +8.5212000e+10 1.41021500e-02 7.81665300e-03            nan
       50 -1    0    0    0    0 -3.8062396188e-02 -1.8047880818e-03 +2.4244277547e+01 2.4244308007e+01 4.9935713700e-03 0.0000e+00 0.0000e+00
       11 -1    0    0    0    0 -1.1983102501e-18 -5.6819755831e-20 +7.6327738667e-16 5.1100000000e-04 5.1099893000e-04 0.0000e+00 -1.0000e+00
       50  1    1    2    0    0 -4.1324731583e-02 -1.4498866661e-02 +2.4072863987e+01 2.4072904342e+01 4.9935713700e-03 0.0000e+00 0.0000e+00
       11  1    1    2    0    0 +3.2623353955e-03 +1.2694078579e-02 +1.7141355995e-01 1.7191466522e-01 5.1099893000e-04 0.0000e+00 -1.0000e+00
<vert_displacement>
31.155224255219462
</vert_displacement>
</event>
<event>
 4   1200 +8.5212000e+10 8.60675500e-03 7.81665300e-03            nan
       50 -1    0    0    0    0 -3.8621265124e-02 +2.1690353686e-02 +1.2191575509e+01 1.2191657000e+01 4.9935713700e-03 0.0000e+00 0.0000e+00
       11 -1    0    0    0    0 -6.7262881809e-18 +3.7775968541e-18 +2.1232875202e-15 5.1100000000e-04 5.1099893000e-04 0.0000e+00 1.0000e+00
       50  1    1    2    0    0 -4.5412742148e-02 +2.0647779725e-02 +1.2143279321e+01 1.2143382818e+01 4.9935713700e-03 0.0000e+00 0.0000e+00
       11  1    1    2    0    0 +6.7914770243e-03 +1.0425739603e-03 +4.8296187768e-02 4.8785182110e-02 5.1099893000e-04 0.0000e+00 1.0000e+00
<vert_displacement>
320.17367804831747
</vert_displacement>
</event>
<event>
 4   1200 +8.5212000e+10 1.06866200e-02 7.81665300e-03            nan
       50 -1    0    0    0    0 +4.9196203801e-02 +2.2458312751e-02 +1.7076696954e+01 1.7076783316e+01 4.9935713700e-03 0.0000e+00 0.0000e+00
       11 -1    0    0    0    0 -4.1179684057e-18 -1.8798731449e-18 -1.4294049763e-15 5.1100000000e-04 5.1099893000e-04 0.0000e+00 1.0000e+00
       50  1    1    2    0    0 +4.3090206000e-02 +2.9759704949e-02 +1.6988903303e+01 1.6988984749e+01 4.9935713700e-03 0.0000e+00 0.0000e+00
       11  1    1    2    0    0 +6.1059978006e-03 -7.3013921981e-03 +8.7793650458e-02 8.8309567533e-02 5.1099893000e-04 0.0000e+00 1.0000e+00
<vert_displacement>
480.27645979695853
</vert_displacement>
</event>
<event>
 4   1200 +8.5212000e+10 8.78631400e-03 7.81665300e-03            nan
       50 -1    0    0    0    0 +2.2488332555e-03 -9.9994274013e-04 +1.9183296383e+00 1.9183377164e+00 4.9935713700e-03 0.0000e+00 0.0000e+00
       11 -1    0    0    0    0 +9.3545251793e-20 -4.1594855989e-20 +7.9797214223e-17 5.1100000000e-04 5.1099893000e-04 0.0000e+00 1.0000e+00
       50  1    1    2    0    0 +9.4057104732e-03 -1.3674090711e-03 +1.8657075422e+00 1.8657384345e+00 4.9935713700e-03 0.0000e+00 0.0000e+00
       11  1    1    2    0    0 -7.1568772177e-03 +3.6746633099e-04 +5.2622096103e-02 5.3110281878e-02 5.1099893000e-04 0.0000e+00 1.0000e+00
<vert_displacement>
132.73776070811576
</vert_displacement>
</event>
<event>
 4   1200 +8.5212000e+10 5.56951100e-03 7.81665300e-03            nan
       50 -1    0    0    0    0 +1.2906814102e-02 -2.6470164101e-03 +5.4436711817e+00 5.4436894165e+00 4.9935713700e-03 0.0000e+00 0.0000e+00
       11 -1    0    0    0    0 -4.7710519300e-19 +9.7847948014e-20 -2.0122733382e-16 5.1100000000e-04 5.1099893000e-04 0.0000e+00 1.0000e+00
       50  1    1    2    0    0 +1.1688899817e-02 -4.7969297634e-03 +5.4377131575e+00 5.4377301293e+00 4.9935713700e-03 0.0000e+00 0.0000e+00
       11  1    1    2    0    0 +1.2179142851e-03 +2.1499133533e-03 +5.9580242752e-03 6.4702871500e-03 5.1099893000e-04 0.0000e+00 1.0000e+00
<vert_displacement>
109.26856812591703
</vert_displacement>
</event>
<event>
 4   1200 +8.5212000e+10 1.20513300e-02 7.81665300e-03            nan
       50 -1    0    0    0    0 +2.3579939589e-03 -1.0343960979e-04 +5.9797703319e+00 5.9797728828e+00 4.9935713700e-03 0.0000e+00 0.0000e+00
       11 -1    0    0    0    0 -2.7362035202e-21 +1.2003076741e-22 -6.9388933634e-18 5.1100000000e-04 5.1099893000e-04 0.0000e+00 1.0000e+00
       50  1    1    2    0    0 -2.0518393740e-03 +9.9618279097e-03 +5.8596293183e+00 5.8596402732e+00 4.9935713700e-03 0.0000e+00 0.0000e+00
       11  1    1    2    0    0 +4.4098333329e-03 -1.0065267519e-02 +1.2014101364e-01 1.2064360952e-01 5.1099893000e-04 0.0000e+00 1.0000e+00
<vert_displacement>
83.059190723285454
</vert_displacement>
</event>
<event>
 4   1200 +8.5212000e+10 7.22013200e-03 7.81665300e-03            nan
       50 -1    0    0    0    0 -2.9408101845e-03 -3.0625746993e-03 +6.8158832140e+00 6.8158863657e+00 4.9935713700e-03 0.0000e+00 0.0000e+00
       11 -1    0    0    0    0 -1.6765752209e-19 -1.7459939714e-19 +3.8857798322e-16 5.1100000000e-04 5.1099893000e-04 0.0000e+00 -1.0000e+00
       50  1    1    2    0    0 -7.4023982885e-03 -5.7312022273e-03 +6.7891638375e+00 6.7891721285e+00 4.9935713700e-03 0.0000e+00 0.0000e+00
       11  1    1    2    0    0 +4.4615881040e-03 +2.6686275280e-03 +2.6719376516e-02 2.7225237237e-02 5.1099893000e-04 0.0000e+00 -1.0000e+00
<vert_displacement>
93.508678936698090
</vert_displacement>
</event>
<event>
 4   1200 +8.5212000e+10 3.48227800e-02 7.81665300e-03            nan
       50 -1    0    0    0    0 +5.1705793827e-03 +1.5889111440e-02 +8.0564212147e+00 8.0564400900e+00 4.9935713700e-03 0.0000e+00 0.0000e+00
       11 -1    0    0    0    0 -1.0242693916e-19 -3.1475641902e-19 -1.5959421654e-16 5.1100000000e-04 5.1099893000e-04 0.0000e+00 1.0000e+00
       50  1    1    2    0    0 -2.8011141674e-02 +1.0311434276e-03 +6.6469178950e+00 6.6469788721e+00 4.9935713700e-03 0.0000e+00 0.0000e+00
       11  1    1    2    0    0 +3.3181721056e-02 +1.4857968012e-02 +1.4095033197e+00 1.4099722179e+00 5.1099893000e-04 0.0000e+00 1.0000e+00
<vert_displacement>
409.65669048745337
</vert_displacement>
</event>
<event>
 4   1200 +8.5212000e+10 2.74175100e-02 7.81665300e-03            nan
       50 -1    0    0    0    0 +1.6055641671e-02 -1.9971982977e-02 +1.2318774611e+01 1.2318802276e+01 4.9935713700e-03 0.0000e+00 0.0000e+00
       11 -1    0    0    0    0 -1.6278784365e-19 +2.0249555320e-19 -1.2489982004e-16 5.1100000000e-04 5.1099893000e-04 0.0000e+00 1.0000e+00
       50  1    1    2    0    0 -3.9343337772e-03 -3.7866559168e-02 +1.1560882676e+01 1.1560946438e+01 4.9935713700e-03 0.0000e+00 0.0000e+00
       11  1    1    2    0    0 +1.9989975448e-02 +1.7894576191e-02 +7.5789193483e-01 7.5836683800e-01 5.1099893000e-04 0.0000e+00 1.0000e+00
<vert_displacement>
491.11347359440498
</vert_displacement>
</event>
<event>
 4   1200 +8.5212000e+10 2.08946900e-02 7.81665300e-03            nan
       50 -1    0    0    0    0 +2.6575787395e-02 +1.2947226159e-02 +7.8626563946e+00 7.8627135531e+00 4.9935713700e-03 0.0000e+00 0.0000e+00
       11 -1    0    0    0    0 -3.8228884507e-18 -1.8624396943e-18 -1.1310317123e-15 5.1100000000e-04 5.1099893000e-04 0.0000e+00 1.0000e+00
       50  1    1    2    0    0 +8.6405444450e-03 +4.3287047697e-04 +7.4367697771e+00 7.4367764858e+00 4.9935713700e-03 0.0000e+00 0.0000e+00
       11  1    1    2    0    0 +1.7935242950e-02 +1.2514355682e-02 +4.2588661748e-01 4.2644806730e-01 5.1099893000e-04 0.0000e+00 1.0000e+00
<vert_displacement>
344.93803397512949
</vert_displacement>
</event>
<event>
 4   1200 +8.5212000e+10 1.02190600e-02 7.81665300e-03            nan
       50 -1    0    0    0    0 -1.1127535073e-02 -5.5066241242e-03 +1.0375243971e+01 1.0375252601e+01 4.9935713700e-03 0.0000e+00 0.0000e+00
       11 -1    0    0    0    0 -1.0121141545e-18 -5.0085955096e-19 +9.4368889527e-16 5.1100000000e-04 5.1099893000e-04 0.0000e+00 1.0000e+00
       50  1    1    2    0    0 -1.9318235150e-02 -2.1451265850e-03 +1.0296857319e+01 1.0296876875e+01 4.9935713700e-03 0.0000e+00 0.0000e+00
       11  1    1    2    0    0 +8.1907000775e-03 -3.3614975393e-03 +7.8386651945e-02 7.8886726111e-02 5.1099893000e-04 0.0000e+00 1.0000e+00
<vert_displacement>
272.16018851036472
</vert_displacement>
</event>
<event>
 4   1200 +8.5212000e+10 1.49653400e-02 7.81665300e-03            nan
       50 -1    0    0    0    0 +8.9891615426e-03 +1.7658317543e-02 +8.5226813621e+00 8.5227058589e+00 4.9935713700e-03 0.0000e+00 0.0000e+00
       11 -1    0    0    0    0 +1.5369201394e-19 +3.0191273937e-19 +1.4571637816e-16 5.1100000000e-04 5.1099893000e-04 0.0000e+00 1.0000e+00
       50  1    1    2    0    0 -2.0644769423e-03 +8.2202659754e-03 +8.3232789957e+00 8.3232848090e+00 4.9935713700e-03 0.0000e+00 0.0000e+00
       11  1    1    2    0    0 +1.1053638485e-02 +9.4380515678e-03 +1.9940236643e-01 1.9993204996e-01 5.1099893000e-04 0.0000e+00 1.0000e+00
<vert_displacement>
272.14880824201413
</vert_displacement>
</event>
<event>
 4   1200 +8.5212000e+10 5.83341700e-02 7.81665300e-03            nan
       50 -1    0    0    0    0 +4.1210611247e-02 +7.7411858529e-03 +1.6072627462e+01 1.6072682934e+01 4.9935713700e-03 0.0000e+00 0.0000e+00
       11 -1    0    0    0    0 -3.9852811510e-18 -7.4861306668e-19 -1.5543069450e-15 5.1100000000e-04 5.1099893000e-04 0.0000e+00 1.0000e+00
       50  1    1    2    0    0 +6.7151736740e-02 +4.9578416528e-02 +1.1416228046e+01 1.1416534287e+01 4.9935713700e-03 0.0000e+00 0.0000e+00
       11  1    1    2    0    0 -2.5941125492e-02 -4.1837230675e-02 +4.6563994157e+00 4.6566596478e+00 5.1099893000e-04 0.0000e+00 1.0000e+00
<vert_displacement>
334.52788589064755
</vert_displacement>
</event>
<event>
 4   1200 +8.5212000e+10 2.77371400e-02 7.81665300e-03            nan
       50 -1    0    0    0    0 -1.1656012097e-02 +3.0602350568e-03 +7.2540503191e+00 7.2540620480e+00 4.9935713700e-03 0.0000e+00 0.0000e+00
       11 -1    0    0    0    0 -1.9957774189e-18 +5.2398264276e-19 +1.2420602948e-15 5.1100000000e-04 5.1099893000e-04 0.0000e+00 1.0000e+00
       50  1    1    2    0    0 -3.7611711222e-02 +2.0690940267e-03 +6.4321426074e+00 6.4322548441e+00 4.9935713700e-03 0.0000e+00 0.0000e+00
       11  1    1    2    0    0 +2.5955699125e-02 +9.9114103010e-04 +8.2190771177e-01 8.2231820390e-01 5.1099893000e-04 0.0000e+00 1.0000e+00
<vert_displacement>
5.7945564256356104
</vert_displacement>
</event>
<event>
 4   1200 +8.5212000e+10 1.65105600e-02 7.81665300e-03            nan
       50 -1    0    0    0    0 -1.2622460448e-02 -4.8814812415e-03 +4.4648725230e+00 4.4648958260e+00 4.9935713700e-03 0.0000e+00 0.0000e+00
       11 -1    0    0    0    0 +6.2773043438e-19 +2.4276204728e-19 -2.2204358490e-16 5.1100000000e-04 5.1099893000e-04 0.0000e+00 1.0000e+00
       50  1    1    2    0    0 -3.2842780487e-05 +5.7412564133e-03 +4.2076558099e+00 4.2076626900e+00 4.9935713700e-03 0.0000e+00 0.0000e+00
       11  1    1    2    0    0 -1.2589617668e-02 -1.0622737655e-02 +2.5721671310e-01 2.5774413601e-01 5.1099893000e-04 0.0000e+00 1.0000e+00
<vert_displacement>
218.66733448568607
</vert_displacement>
</event>
<event>
 4   1200 +8.5212000e+10 1.37606600e-02 7.81665300e-03            nan
       50 -1    0    0    0    0 +1.5683918907e-02 -8.9825973818e-03 +7.5415322597e+00 7.5415555711e+00 4.9935713700e-03 0.0000e+00 0.0000e+00
       11 -1    0    0    0    0 -1.7605316037e-18 +1.0083032607e-18 -8.4654262513e-16 5.1100000000e-04 5.1099893000e-04 0.0000e+00 1.0000e+00
       50  1    1    2    0    0 +1.5322037416e-02 -2.1609286519e-02 +7.3770267294e+00 7.3770759809e+00 4.9935713700e-03 0.0000e+00 0.0000e+00
       11  1    1    2    0    0 +3.6188149054e-04 +1.2626689137e-02 +1.6450553028e-01 1.6499059019e-01 5.1099893000e-04 0.0000e+00 1.0000e+00
<vert_displacement>
33.182112799130792
</vert_displacement>
</event>
<event>
 4   1200 +8.5212000e+10 1.21153200e-02 7.81665300e-03            nan
       50 -1    0    0    0    0 -1.3213645978e-02 +7.4938000579e-03 +4.6850657522e+00 4.6850930402e+00 4.9935713700e-03 0.0000e+00 0.0000e+00
       11 -1    0    0    0    0 +5.6753537777e-19 -3.2186397713e-19 -2.0122686547e-16 5.1100000000e-04 5.1099893000e-04 0.0000e+00 1.0000e+00
       50  1    1    2    0    0 -1.4114209991e-02 -3.6698635462e-03 +4.5626280812e+00 4.5626541204e+00 4.9935713700e-03 0.0000e+00 0.0000e+00
       11  1    1    2    0    0 +9.0056401370e-04 +1.1163663604e-02 +1.2243767094e-01 1.2294991983e-01 5.1099893000e-04 0.0000e+00 1.0000e+00
<vert_displacement>
123.13598299925206
</vert_displacement>
</event>
<event>
 4   1200 +8.5212000e+10 1.17059900e-02 7.81665300e-03            nan
       50 -1    0    0    0    0 -1.6620367515e-02 -1.2869008065e-02 +6.7897030693e+00 6.7897374436e+00 4.9935713700e-03 0.0000e+00 0.0000e+00
       11 -1    0    0    0    0 +8.1530338262e-19 +6.3128241883e-19 -3.3306531125e-16 5.1100000000e-04 5.1099893000e-04 0.0000e+00 1.0000e+00
       50  1    1    2    0    0 -7.9315967228e-03 -6.2335785557e-03 +6.6782081169e+00 6.6782176033e+00 4.9935713700e-03 0.0000e+00 0.0000e+00
       11  1    1    2    0    0 -8.6887707917e-03 -6.6354295095e-03 +1.1149495235e-01 1.1203084031e-01 5.1099893000e-04 0.0000e+00 1.0000e+00
<vert_displacement>
392.36840883306149
</vert_displacement>
</event>
<event>
 4   1200 +8.5212000e+10 7.92396300e-03 7.81665300e-03            nan
       50 -1    0    0    0    0 +7.3656406185e-03 +3.8575609107e-03 +1.6758501343e+01 1.6758504150e+01 4.9935713700e-03 0.0000e+00 0.0000e+00
       11 -1    0    0    0    0 +1.7078651135e-19 +8.9444951821e-20 +3.8857801079e-16 5.1100000000e-04 5.1099893000e-04 0.0000e+00 1.0000e+00
       50  1    1    2    0    0 +6.8110235648e-03 -2.2799036628e-03 +1.6721380939e+01 1.6721383227e+01 4.9935713700e-03 0.0000e+00 0.0000e+00
       11  1    1    2    0    0 +5.5461705366e-04 +6.1374645736e-03 +3.7120404209e-02 3.7631922619e-02 5.1099893000e-04 0.0000e+00 1.0000e+00
<vert_displacement>
450.04105146575898
</vert_displacement>
</event>
<event>
 4   1200 +8.5212000e+10 5.18387000e-03 7.81665300e-03            nan
       50 -1    0    0    0    0 -1.0628686920e-02 +6.6732272251e-03 +3.0915767629e+00 3.0916062682e+00 4.9935713700e-03 0.0000e+00 0.0000e+00
       11 -1    0    0    0    0 -1.6698762545e-19 +1.0484327714e-19 +4.8571857128e-17 5.1100000000e-04 5.1099893000e-04 0.0000e+00 1.0000e+00
       50  1    1    2    0    0 -9.5004457758e-03 +7.4928369522e-03 +3.0896823115e+00 3.0897100387e+00 4.9935713700e-03 0.0000e+00 0.0000e+00
       11  1    1    2    0    0 -1.1282411438e-03 -8.1960972712e-04 +1.8944513818e-03 2.4072295544e-03 5.1099893000e-04 0.0000e+00 1.0000e+00
<vert_displacement>
29.584588231312299
</vert_displacement>
</event>
<event>
 4   1200 +8.5212000e+10 2.30687000e-02 7.81665300e-03            nan
       50 -1    0    0    0    0 +7.6493816453e-02 +1.8067339040e-02 +2.5512303793e+01 2.5512425355e+01 4.9935713700e-03 0.0000e+00 0.0000e+00
       11 -1    0    0    0    0 +1.1817161572e-17 +2.7911362580e-18 +3.9412730334e-15 5.1100000000e-04 5.1099893000e-04 0.0000e+00 1.0000e+00
       50  1    1    2    0    0 +6.3546538537e-02 -1.6975723938e-03 +2.5005973776e+01 2.5006055076e+01 4.9935713700e-03 0.0000e+00 0.0000e+00
       11  1    1    2    0    0 +1.2947277916e-02 +1.9764911433e-02 +5.0633001735e-01 5.0688127931e-01 5.1099893000e-04 0.0000e+00 1.0000e+00
<vert_displacement>
246.21159452879809
</vert_displacement>
</event>
<event>
 4   1200 +8.5212000e+10 1.37458800e-02 7.81665300e-03            nan
       50 -1    0    0    0    0 +1.0881022237e-03 +2.3514439562e-03 +4.6465501054e+00 4.6465535110e+00 4.9935713700e-03 0.0000e+00 0.0000e+00
       11 -1    0    0    0    0 -5.0372203205e-20 -1.0885687962e-19 -2.1510567758e-16 5.1100000000e-04 5.1099893000e-04 0.0000e+00 1.0000e+00
       50  1    1    2    0    0 -8.7971778574e-03 +1.0456455345e-02 +4.4800505654e+00 4.4800741882e+00 4.9935713700e-03 0.0000e+00 0.0000e+00
       11  1    1    2    0    0 +9.8852800812e-03 -8.1050113884e-03 +1.6649953999e-01 1.6699032280e-01 5.1099893000e-04 0.0000e+00 1.0000e+00
<vert_displacement>
446.05354448870457
</vert_displacement>
</event>
<event>
 4   1200 +8.5212000e+10 1.90462400e-02 7.81665300e-03            nan
       50 -1    0    0    0    0 +7.1860378048e-03 -2.5366908906e-02 +1.5303811574e+01 1.5303835100e+01 4.9935713700e-03 0.0000e+00 0.0000e+00
       11 -1    0    0    0    0 +3.8772736332e-19 -1.3686881384e-18 +8.2572714920e-16 5.1100000000e-04 5.1099893000e-04 0.0000e+00 1.0000e+00
       50  1    1    2    0    0 -7.3168838064e-04 -8.1446376421e-03 +1.4965802173e+01 1.4965805240e+01 4.9935713700e-03 0.0000e+00 0.0000e+00
       11  1    1    2    0    0 +7.9177261854e-03 -1.7222271264e-02 +3.3800940124e-01 3.3854085937e-01 5.1099893000e-04 0.0000e+00 1.0000e+00
<vert_displacement>
372.97521746196696
</vert_displacement>
</event>
<event>
 4   1200 +8.5212000e+10 1.48904900e-02 7.81665300e-03            nan
       50 -1    0    0    0    0 -5.5220866594e-03 +6.7170017999e-03 +3.6872979842e+00 3.6873116184e+00 4.9935713700e-03 0.0000e+00 0.0000e+00
       11 -1    0    0    0    0 +2.3900768063e-19 -2.9072615480e-19 -1.5959411602e-16 5.1100000000e-04 5.1099893000e-04 0.0000e+00 1.0000e+00
       50  1    1    2    0    0 +3.2707846840e-03 +1.7514833716e-02 +3.4833564018e+00 3.4834055500e+00 4.9935713700e-03 0.0000e+00 0.0000e+00
       11  1    1    2    0    0 -8.7928713434e-03 -1.0797831916e-02 +2.0394158235e-01 2.0441706849e-01 5.1099893000e-04 0.0000e+00 1.0000e+00
<vert_displacement>
485.95873537061300
</vert_displacement>
</event>
<event>
 4   1200 +8.5212000e+10 4.44769800e-02 7.81665300e-03            nan
       50 -1    0    0    0    0 -4.8505029780e-03 -1.9974382929e-04 +1.2703866320e+01 1.2703868229e+01 4.9935713700e-03 0.0000e+00 0.0000e+00
       11 -1    0    0    0    0 -3.5236496179e-19 -1.4510397602e-20 +9.2287282184e-16 5.1100000000e-04 5.1099893000e-04 0.0000e+00 1.0000e+00
       50  1    1    2    0    0 -4.4827021546e-02 -1.6978253864e-02 +1.0358880440e+01 1.0358992549e+01 4.9935713700e-03 0.0000e+00 0.0000e+00
       11  1    1    2    0    0 +3.9976518568e-02 +1.6778510035e-02 +2.3449858803e+00 2.3453866804e+00 5.1099893000e-04 0.0000e+00 1.0000e+00
<vert_displacement>
278.47169882780463
</vert_displacement>
</event>
<event>
 4   1200 +8.5212000e+10 2.50496200e-02 7.81665300e-03            nan
       50 -1    0    0    0    0 +5.8477836863e-02 +2.9224763704e-02 +1.7400623954e+01 1.7400747474e+01 4.9935713700e-03 0.0000e+00 0.0000e+00
       11 -1    0    0    0    0 -2.2386432658e-18 -1.1187797629e-18 -6.6612911361e-16 5.1100000000e-04 5.1099893000e-04 0.0000e+00 1.0000e+00
       50  1    1    2    0    0 +3.3211597778e-02 +2.0216291225e-02 +1.6789635280e+01 1.6789681042e+01 4.9935713700e-03 0.0000e+00 0.0000e+00
       11  1    1    2    0    0 +2.5266239086e-02 +9.0084724797e-03 +6.1098867364e-01 6.1157743243e-01 5.1099893000e-04 0.0000e+00 1.0000e+00
<vert_displacement>
189.44784589229323
</vert_displacement>
</event>
<event>
 4   1200 +8.5212000e+10 2.74802400e-02 7.81665300e-03            nan
       50 -1    0    0    0    0 -4.4149733727e-02 +2.2555731983e-02 +1.3899581867e+01 1.3899671182e+01 4.9935713700e-03 0.0000e+00 0.0000e+00
       11 -1    0    0    0    0 -2.0497306058e-18 +1.0471903289e-18 +6.4531302809e-16 5.1100000000e-04 5.1099893000e-04 0.0000e+00 1.0000e+00
       50  1    1    2    0    0 -5.8181550029e-02 +4.2781830503e-02 +1.3143808135e+01 1.3144007479e+01 4.9935713700e-03 0.0000e+00 0.0000e+00
       11  1    1    2    0    0 +1.4031816302e-02 -2.0226098520e-02 +7.5577373194e-01 7.5617470332e-01 5.1099893000e-04 0.0000e+00 1.0000e+00
<vert_displacement>
479.69443764213571
</vert_displacement>
</event>
<event>
 4   1200 +8.5212000e+10 1.89843900e-02 7.81665300e-03            nan
       50 -1    0    0    0    0 +3.3908555606e-02 -7.9833105186e-03 +1.2568515307e+01 1.2568564576e+01 4.9935713700e-03 0.0000e+00 0.0000e+00
       11 -1    0    0    0    0 -2.6208485601e-19 +6.1704332441e-20 -9.7144141520e-17 5.1100000000e-04 5.1099893000e-04 0.0000e+00 -1.0000e+00
       50  1    1    2    0    0 +3.5872909772e-02 -2.5857950617e-02 +1.2231162772e+01 1.2231243730e+01 4.9935713700e-03 0.0000e+00 0.0000e+00
       11  1    1    2    0    0 -1.9643541660e-03 +1.7874640098e-02 +3.3735253559e-01 3.3783184550e-01 5.1099893000e-04 0.0000e+00 -1.0000e+00
<vert_displacement>
28.954700955316291
</vert_displacement>
</event>
<event>
 4   1200 +8.5212000e+10 3.38490600e-02 7.81665300e-03            nan
       50 -1    0    0    0    0 +2.9327190185e-02 +1.5684345523e-02 +8.6106445328e+00 8.6107102081e+00 4.9935713700e-03 0.0000e+00 0.0000e+00
       11 -1    0    0    0    0 +8.2716061362e-19 +4.4237012770e-19 +2.4285947513e-16 5.1100000000e-04 5.1099893000e-04 0.0000e+00 1.0000e+00
       50  1    1    2    0    0 +5.4963388594e-02 -1.4608808080e-03 +7.3197753511e+00 7.3199835542e+00 4.9935713700e-03 0.0000e+00 0.0000e+00
       11  1    1    2    0    0 -2.5636198410e-02 +1.7145226331e-02 +1.2908691817e+00 1.2912376539e+00 5.1099893000e-04 0.0000e+00 1.0000e+00
<vert_displacement>
93.707060911773922
</vert_displacement>
</event>
<event>
 4   1200 +8.5212000e+10 3.93919900e-02 7.81665300e-03            nan
       50 -1    0    0    0    0 -4.6519310495e-02 +4.7578428692e-03 +2.9861060829e+01 2.9861097861e+01 4.9935713700e-03 0.0000e+00 0.0000e+00
       11 -1    0    0    0    0 -4.1509640856e-18 +4.2454702497e-19 +2.6645319920e-15 5.1100000000e-04 5.1099893000e-04 0.0000e+00 1.0000e+00
       50  1    1    2    0    0 -5.3236994321e-02 +4.2488266579e-02 +2.8283703738e+01 2.8283786194e+01 4.9935713700e-03 0.0000e+00 0.0000e+00
       11  1    1    2    0    0 +6.7176838260e-03 -3.7730423710e-02 +1.5773570918e+00 1.5778226670e+00 5.1099893000e-04 0.0000e+00 1.0000e+00
<vert_displacement>
353.74052983220389
</vert_displacement>
</event>
<event>
 4   1200 +8.5212000e+10 1.43759200e-02 7.81665300e-03            nan
       50 -1    0    0    0    0 -1.8993760050e-02 -9.6230293925e-03 +1.2765734616e+01 1.2765753350e+01 4.9935713700e-03 0.0000e+00 0.0000e+00
       11 -1    0    0    0    0 -1.5795966694e-18 -8.0028941808e-19 +1.0616492905e-15 5.1100000000e-04 5.1099893000e-04 0.0000e+00 1.0000e+00
       50  1    1    2    0    0 -1.7963329859e-02 -2.2946272643e-02 +1.2585345850e+01 1.2585380579e+01 4.9935713700e-03 0.0000e+00 0.0000e+00
       11  1    1    2    0    0 -1.0304301914e-03 +1.3323243250e-02 +1.8038876638e-01 1.8088377140e-01 5.1099893000e-04 0.0000e+00 1.0000e+00
<vert_displacement>
255.18640609370595
</vert_displacement>
</event>
<event>
 4   1200 +8.5212000e+10 1.17745300e-02 7.81665300e-03            nan
       50 -1    0    0    0    0 -4.7502865783e-02 -5.3352027898e-02 +2.7605062036e+01 2.7605154915e+01 4.9935713700e-03 0.0000e+00 0.0000e+00
       11 -1    0    0    0    0 +5.1582646847e-18 +5.7934163934e-18 -2.9975921299e-15 5.1100000000e-04 5.1099893000e-04 0.0000e+00 1.0000e+00
       50  1    1    2    0    0 -5.6148114189e-02 -4.7169323808e-02 +2.7493348054e+01 2.7493446304e+01 4.9935713700e-03 0.0000e+00 0.0000e+00
       11  1    1    2    0    0 +8.6452484066e-03 -6.1827040895e-03 +1.1171398207e-01 1.1221961085e-01 5.1099893000e-04 0.0000e+00 1.0000e+00
<vert_displacement>
107.12149097940301
</vert_displacement>
</event>
<event>
 4   1200 +8.5212000e+10 2.16258500e-02 7.81665300e-03            nan
       50 -1    0    0    0    0 -2.2375809877e-02 +7.5191898264e-04 +1.1106667737e+01 1.1106691424e+01 4.9935713700e-03 0.0000e+00 0.0000e+00
       11 -1    0    0    0    0 -2.4743299648e-18 +8.3147634882e-20 +1.2281817258e-15 5.1100000000e-04 5.1099893000e-04 0.0000e+00 1.0000e+00
       50  1    1    2    0    0 -2.7855157517e-03 +1.0405459353e-02 +1.0655069859e+01 1.0655076474e+01 4.9935713700e-03 0.0000e+00 0.0000e+00
       11  1    1    2    0    0 -1.9590294125e-02 -9.6535403703e-03 +4.5159787757e-01 4.5212594994e-01 5.1099893000e-04 0.0000e+00 1.0000e+00
<vert_displacement>
347.44917410326377
</vert_displacement>
</event>
<event>
 4   1200 +8.5212000e+10 1.08668900e-02 7.81665300e-03            nan
       50 -1    0    0    0    0 +1.9279863689e-03 +3.6546739666e-03 +8.3451097019e+00 8.3451122189e+00 4.9935713700e-03 0.0000e+00 0.0000e+00
       11 -1    0    0    0    0 +8.0155274765e-20 +1.5194163232e-19 +3.4694465267e-16 5.1100000000e-04 5.1099893000e-04 0.0000e+00 1.0000e+00
       50  1    1    2    0    0 +1.1544180976e-02 +3.0924205033e-03 +8.2529327462e+00 8.2529429103e+00 4.9935713700e-03 0.0000e+00 0.0000e+00
       11  1    1    2    0    0 -9.6161946075e-03 +5.6225346329e-04 +9.2176955655e-02 9.2680308595e-02 5.1099893000e-04 0.0000e+00 1.0000e+00
<vert_displacement>
212.26794639561680
</vert_displacement>
</event>
<event>
 4   1200 +8.5212000e+10 4.66107900e-02 7.81665300e-03            nan
       50 -1    0    0    0    0 -9.8964184235e-03 +1.7612554196e-02 +1.0584761690e+01 1.0584782147e+01 4.9935713700e-03 0.0000e+00 0.0000e+00
       11 -1    0    0    0    0 -2.2057959638e-19 +3.9256324151e-19 +2.3592196301e-16 5.1100000000e-04 5.1099893000e-04 0.0000e+00 -1.0000e+00
       50  1    1    2    0    0 +1.8505595081e-02 +5.1361749823e-02 +7.6894905567e+00 7.6896859782e+00 4.9935713700e-03 0.0000e+00 0.0000e+00
       11  1    1    2    0    0 -2.8402013504e-02 -3.3749195627e-02 +2.8952711331e+00 2.8956071691e+00 5.1099893000e-04 0.0000e+00 -1.0000e+00
<vert_displacement>
298.69816469377599
</vert_displacement>
</event>
<event>
 4   1200 +8.5212000e+10 3.56530400e-02 7.81665300e-03            nan
       50 -1    0    0    0    0 +4.1971358913e-02 +5.2890381455e-02 +3.1645118720e+01 3.1645191146e+01 4.9935713700e-03 0.0000e+00 0.0000e+00
       11 -1    0    0    0    0 +1.7485947128e-18 +2.2034988565e-18 +1.3183868407e-15 5.1100000000e-04 5.1099893000e-04 0.0000e+00 1.0000e+00
       50  1    1    2    0    0 +4.2619964447e-02 +8.5991363067e-02 +3.0374620260e+01 3.0374772293e+01 4.9935713700e-03 0.0000e+00 0.0000e+00
       11  1    1    2    0    0 -6.4860553430e-04 -3.3100981612e-02 +1.2704984598e+00 1.2709298537e+00 5.1099893000e-04 0.0000e+00 1.0000e+00
<vert_displacement>
478.51683344200433
</vert_displacement>
</event>
<event>
 4   1200 +8.5212000e+10 3.67331800e-02 7.81665300e-03            nan
       50 -1    0    0    0    0 +5.0205810793e-02 -6.2040221489e-03 +3.3590903618e+01 3.3590942081e+01 4.9935713700e-03 0.0000e+00 0.0000e+00
       11 -1    0    0    0    0 +3.0283418922e-18 -3.7421764288e-19 +2.0261547223e-15 5.1100000000e-04 5.1099893000e-04 0.0000e+00 1.0000e+00
       50  1    1    2    0    0 +5.0297022715e-02 +3.0376350661e-02 +3.2240696146e+01 3.2240750075e+01 4.9935713700e-03 0.0000e+00 0.0000e+00
       11  1    1    2    0    0 -9.1211922768e-05 -3.6580372810e-02 +1.3502074720e+00 1.3507030061e+00 5.1099893000e-04 0.0000e+00 1.0000e+00
<vert_displacement>
263.40222426355507
</vert_displacement>
</event>
<event>
 4   1200 +8.5212000e+10 6.97615100e-03 7.81665300e-03            nan
       50 -1    0    0    0    0 -2.2150973159e-02 -2.7825077960e-02 +1.6012886546e+01 1.6012926821e+01 4.9935713700e-03 0.0000e+00 0.0000e+00
       11 -1    0    0    0    0 +4.7993493572e-19 +6.0287315174e-19 -3.4694383945e-16 5.1100000000e-04 5.1099893000e-04 0.0000e+00 1.0000e+00
       50  1    1    2    0    0 -2.4370665741e-02 -3.2104383797e-02 +1.5989621335e+01 1.5989672917e+01 4.9935713700e-03 0.0000e+00 0.0000e+00
       11  1    1    2    0    0 +2.2196925821e-03 +4.2793058373e-03 +2.3265211063e-02 2.3764903941e-02 5.1099893000e-04 0.0000e+00 1.0000e+00
<vert_displacement>
482.49423302998485
</vert_displacement>
</event>
<event>
 4   1200 +8.5212000e+10 1.12688200e-02 7.81665300e-03            nan
       50 -1    0    0    0    0 -7.9971909897e-02 -9.7381418230e-02 +3.8550988235e+01 3.8551194502e+01 4.9935713700e-03 0.0000e+00 0.0000e+00
       11 -1    0    0    0    0 +8.0032184503e-18 +9.7454814333e-18 -3.8580044008e-15 5.1100000000e-04 5.1099893000e-04 0.0000e+00 1.0000e+00
       50  1    1    2    0    0 -8.9249820191e-02 -9.3653761443e-02 +3.8450862608e+01 3.8451080567e+01 4.9935713700e-03 0.0000e+00 0.0000e+00
       11  1    1    2    0    0 +9.2779102935e-03 -3.7276567867e-03 +1.0012562768e-01 1.0062493470e-01 5.1099893000e-04 0.0000e+00 1.0000e+00
<vert_displacement>
343.54336798513538
</vert_displacement>
</event>
<event>
 4   1200 +8.5212000e+10 1.80695200e-02 7.81665300e-03            nan
       50 -1    0    0    0    0 -3.0235792625e-02 -1.7953988499e-02 +2.3953547386e+01 2.3953573718e+01 4.9935713700e-03 0.0000e+00 0.0000e+00
       11 -1    0    0    0    0 -8.9339078767e-19 -5.3049470625e-19 +7.0776641554e-16 5.1100000000e-04 5.1099893000e-04 0.0000e+00 1.0000e+00
       50  1    1    2    0    0 -4.4838091345e-02 -8.9444156814e-03 +2.3654717454e+01 2.3654762168e+01 4.9935713700e-03 0.0000e+00 0.0000e+00
       11  1    1    2    0    0 +1.4602298720e-02 -9.0095728175e-03 +2.9882993213e-01 2.9932255009e-01 5.1099893000e-04 0.0000e+00 1.0000e+00
<vert_displacement>
219.36610137197502
</vert_displacement>
</event>
<event>
 4   1200 +8.5212000e+10 1.73214700e-02 7.81665300e-03            nan
       50 -1    0    0    0    0 -1.0583818612e-03 -2.8673621692e-03 +1.7043674172e+00 1.7043774730e+00 4.9935713700e-03 0.0000e+00 0.0000e+00
       11 -1    0    0    0    0 +8.6178456143e-21 +2.3347418734e-20 -1.3877765493e-17 5.1100000000e-04 5.1099893000e-04 0.0000e+00 1.0000e+00
       50  1    1    2    0    0 +6.6636885592e-03 -1.5694891847e-02 +3.6050247864e-01 3.6094003275e-01 4.9935713700e-03 0.0000e+00 0.0000e+00
       11  1    1    2    0    0 -7.7220704204e-03 +1.2827529678e-02 +1.3438649386e+00 1.3439484403e+00 5.1099893000e-04 0.0000e+00 1.0000e+00
<vert_displacement>
14.857688595125515
</vert_displacement>
</event>
<event>
 4   1200 +8.5212000e+10 7.44141900e-02 7.81665300e-03            nan
       50 -1    0    0    0    0 +3.6712115719e-02 +6.8074772033e-02 +2.7403437900e+01 2.7403547500e+01 4.9935713700e-03 0.0000e+00 0.0000e+00
       11 -1    0    0    0    0 +1.7104512602e-18 +3.1716662832e-18 +1.2767513931e-15 5.1100000000e-04 5.1099893000e-04 0.0000e+00 1.0000e+00
       50  1    1    2    0    0 +9.6769256992e-02 +7.4604799202e-02 +2.0016327362e+01 2.0016700931e+01 4.9935713700e-03 0.0000e+00 0.0000e+00
       11  1    1    2    0    0 -6.0057141273e-02 -6.5300271682e-03 +7.3871105375e+00 7.3873575693e+00 5.1099893000e-04 0.0000e+00 1.0000e+00
<vert_displacement>
357.78399752894745
</vert_displacement>
</event>
<event>
 4   1200 +8.5212000e+10 2.79774000e-02 7.81665300e-03            nan
       50 -1    0    0    0    0 +2.5597345724e-02 -6.8076623217e-03 +2.2958405867e+01 2.2958421690e+01 4.9935713700e-03 0.0000e+00 0.0000e+00
       11 -1    0    0    0    0 +1.3306738121e-18 -3.5389520736e-19 +1.1934889572e-15 5.1100000000e-04 5.1099893000e-04 0.0000e+00 1.0000e+00
       50  1    1    2    0    0 +4.9621418192e-02 -1.8362071980e-02 +2.2191209834e+01 2.2191273471e+01 4.9935713700e-03 0.0000e+00 0.0000e+00
       11  1    1    2    0    0 -2.4024072467e-02 +1.1554409659e-02 +7.6719603351e-01 7.6765921827e-01 5.1099893000e-04 0.0000e+00 1.0000e+00
<vert_displacement>
39.618399283709103
</vert_displacement>
</event>
<event>
 4   1200 +8.5212000e+10 1.17664400e-02 7.81665300e-03            nan
       50 -1    0    0    0    0 -2.2026115424e-02 -2.2056858842e-02 +9.9769814771e+00 9.9770314215e+00 4.9935713700e-03 0.0000e+00 0.0000e+00
       11 -1    0    0    0    0 -1.0723212498e-19 -1.0738179649e-19 +4.8572020262e-17 5.1100000000e-04 5.1099893000e-04 0.0000e+00 -1.0000e+00
       50  1    1    2    0    0 -3.0924672965e-02 -1.6344667560e-02 +9.8646303478e+00 9.8646936252e+00 4.9935713700e-03 0.0000e+00 0.0000e+00
       11  1    1    2    0    0 +8.8985575411e-03 -5.7121912824e-03 +1.1235112930e-01 1.1284879632e-01 5.1099893000e-04 0.0000e+00 -1.0000e+00
<vert_displacement>
420.30682662187502
</vert_displacement>
</event>
<event>
 4   1200 +8.5212000e+10 1.89928300e-02 7.81665300e-03            nan
       50 -1    0    0    0    0 +2.5059701042e-03 -1.0379529471e-02 +6.9867054772e+00 6.9867154211e+00 4.9935713700e-03 0.0000e+00 0.0000e+00
       11 -1    0    0    0    0 -3.6585628850e-19 +1.5153477379e-18 -1.0200162127e-15 5.1100000000e-04 5.1099893000e-04 0.0000e+00 1.0000e+00
       50  1    1    2    0    0 +4.5523930059e-03 +8.3297482906e-03 +6.6409745201e+00 6.6409831818e+00 4.9935713700e-03 0.0000e+00 0.0000e+00
       11  1    1    2    0    0 -2.0464229016e-03 -1.8709277761e-02 +3.4573095712e-01 3.4624323928e-01 5.1099893000e-04 0.0000e+00 1.0000e+00
<vert_displacement>
118.26987965585879
</vert_displacement>
</event>
<event>
 4   1200 +8.5212000e+10 5.66627600e-03 7.81665300e-03            nan
       50 -1    0    0    0    0 +1.1457136141e-02 -4.1876390891e-03 +4.4014134597e+00 4.4014331963e+00 4.9935713700e-03 0.0000e+00 0.0000e+00
       11 -1    0    0    0    0 -2.0771617950e-18 +7.5921275787e-19 -7.9796973430e-16 5.1100000000e-04 5.1099893000e-04 0.0000e+00 1.0000e+00
       50  1    1    2    0    0 +1.4115446097e-02 -4.0993225498e-03 +4.3943779276e+00 4.3944053473e+00 4.9935713700e-03 0.0000e+00 0.0000e+00
       11  1    1    2    0    0 -2.6583099561e-03 -8.8316539288e-05 +7.0355320743e-03 7.5388489247e-03 5.1099893000e-04 0.0000e+00 1.0000e+00
<vert_displacement>
120.50396290476159
</vert_displacement>
</event>
<event>
 4   1200 +8.5212000e+10 8.82686000e-03 7.81665300e-03            nan
       50 -1    0    0    0    0 -1.1196170358e-02 -1.4823784015e-02 +9.8082024990e+00 9.8082213625e+00 4.9935713700e-03 0.0000e+00 0.0000e+00
       11 -1    0    0    0    0 +2.6138669790e-19 +3.4607725948e-19 -2.2898308812e-16 5.1100000000e-04 5.1099893000e-04 0.0000e+00 1.0000e+00
       50  1    1    2    0    0 -7.3086099376e-03 -8.5544251055e-03 +9.7560987163e+00 9.7561064822e+00 4.9935713700e-03 0.0000e+00 0.0000e+00
       11  1    1    2    0    0 -3.8875604200e-03 -6.2693589094e-03 +5.2103782674e-02 5.2625880287e-02 5.1099893000e-04 0.0000e+00 1.0000e+00
<vert_displacement>
261.93793906437907
</vert_displacement>
</event>
<event>
 4   1200 +8.5212000e+10 3.02625400e-02 7.81665300e-03            nan
       50 -1    0    0    0    0 -2.5478055931e-02 -2.3556810046e-02 +1.2045595806e+01 1.2045646820e+01 4.9935713700e-03 0.0000e+00 0.0000e+00
       11 -1    0    0    0    0 +2.9059734087e-18 +2.6868401488e-18 -1.3738952925e-15 5.1100000000e-04 5.1099893000e-04 0.0000e+00 1.0000e+00
       50  1    1    2    0    0 +1.9235525357e-03 -6.0313076578e-03 +1.1099461276e+01 1.1099464204e+01 4.9935713700e-03 0.0000e+00 0.0000e+00
       11  1    1    2    0    0 -2.7401608466e-02 -1.7525502388e-02 +9.4613453059e-01 9.4669361595e-01 5.1099893000e-04 0.0000e+00 1.0000e+00
<vert_displacement>
193.55839334491534
</vert_displacement>
</event>
<event>
 4   1200 +8.5212000e+10 8.78289200e-03 7.81665300e-03            nan
       50 -1    0    0    0    0 +1.3338993682e-02 +2.6402491904e-03 +4.9721476660e+00 4.9721687671e+00 4.9935713700e-03 0.0000e+00 0.0000e+00
       11 -1    0    0    0    0 -4.2814956574e-19 -8.4745639080e-20 -1.5959396298e-16 5.1100000000e-04 5.1099893000e-04 0.0000e+00 1.0000e+00
       50  1    1    2    0    0 +2.0075851069e-02 +3.9186544929e-04 +4.9205070448e+00 4.9205505492e+00 4.9935713700e-03 0.0000e+00 0.0000e+00
       11  1    1    2    0    0 -6.7368573866e-03 +2.2483837411e-03 +5.1640621186e-02 5.2129217846e-02 5.1099893000e-04 0.0000e+00 1.0000e+00
<vert_displacement>
2.8890083545534004
</vert_displacement>
</event>
<event>
 4   1200 +8.5212000e+10 1.31883300e-02 7.81665300e-03            nan
       50 -1    0    0    0    0 +3.3171900298e-02 +1.6517520070e-02 +1.0650739443e+01 1.0650805079e+01 4.9935713700e-03 0.0000e+00 0.0000e+00
       11 -1    0    0    0    0 -4.9705682981e-19 -2.4750303988e-19 -1.5959359383e-16 5.1100000000e-04 5.1099893000e-04 0.0000e+00 1.0000e+00
       50  1    1    2    0    0 +2.1402754581e-02 +1.1693814400e-02 +1.0502929741e+01 1.0502959245e+01 4.9935713700e-03 0.0000e+00 0.0000e+00
       11  1    1    2    0    0 +1.1769145716e-02 +4.8237056697e-03 +1.4780970214e-01 1.4835683366e-01 5.1099893000e-04 0.0000e+00 1.0000e+00
<vert_displacement>
296.06333756111320
</vert_displacement>
</event>
<event>
 4   1200 +8.5212000e+10 1.36525100e-02 7.81665300e-03            nan
       50 -1    0    0    0    0 +8.6867652549e-02 +6.5469754052e-02 +2.8273948064e+01 2.8274157747e+01 4.9935713700e-03 0.0000e+00 0.0000e+00
       11 -1    0    0    0    0 +2.1744971090e-18 +1.6388585018e-18 +7.0776194037e-16 5.1100000000e-04 5.1099893000e-04 0.0000e+00 1.0000e+00
       50  1    1    2    0    0 +7.7483429848e-02 +5.6029263970e-02 +2.8115121585e+01 2.8115284627e+01 4.9935713700e-03 0.0000e+00 0.0000e+00
       11  1    1    2    0    0 +9.3842227009e-03 +9.4404900825e-03 +1.5882647857e-01 1.5938412061e-01 5.1099893000e-04 0.0000e+00 1.0000e+00
<vert_displacement>
239.50794263036963
</vert_displacement>
</event>
<event>
 4   1200 +8.5212000e+10 2.02503800e-02 7.81665300e-03            nan
       50 -1    0    0    0    0 +4.4723342136e-04 +8.7901742622e-03 +7.3905636988e+00 7.3905706268e+00 4.9935713700e-03 0.0000e+00 0.0000e+00
       11 -1    0    0    0    0 -5.5426895791e-20 -1.0893910194e-18 -9.1593334579e-16 5.1100000000e-04 5.1099893000e-04 0.0000e+00 1.0000e+00
       50  1    1    2    0    0 -2.2437728765e-03 -1.1126679858e-02 +6.9921603002e+00 6.9921712963e+00 4.9935713700e-03 0.0000e+00 0.0000e+00
       11  1    1    2    0    0 +2.6910062978e-03 +1.9916854120e-02 +3.9840339857e-01 3.9891033041e-01 5.1099893000e-04 0.0000e+00 1.0000e+00
<vert_displacement>
34.004999224607822
</vert_displacement>
</event>
<event>
 4   1200 +8.5212000e+10 1.34866100e-02 7.81665300e-03            nan
       50 -1    0    0    0    0 +5.8170912830e-03 +1.9718281068e-04 +2.6122737618e+00 2.6122850188e+00 4.9935713700e-03 0.0000e+00 0.0000e+00
       11 -1    0    0    0    0 -5.2535791147e-19 -1.7808135468e-20 -2.3592180712e-16 5.1100000000e-04 5.1099893000e-04 0.0000e+00 1.0000e+00
       50  1    1    2    0    0 -6.7891462786e-03 +2.8510611915e-03 +2.4483060888e+00 2.4483222544e+00 4.9935713700e-03 0.0000e+00 0.0000e+00
       11  1    1    2    0    0 +1.2606237562e-02 -2.6538783808e-03 +1.6396767298e-01 1.6447376447e-01 5.1099893000e-04 0.0000e+00 1.0000e+00
<vert_displacement>
175.05553604143907
</vert_displacement>
</event>
<event>
 4   1200 +8.5212000e+10 2.20857400e-02 7.81665300e-03            nan
       50 -1    0    0    0    0 +1.3453415312e-01 +9.5075063286e-02 +5.1247474959e+01 5.1247739982e+01 4.9935713700e-03 0.0000e+00 0.0000e+00
       11 -1    0    0    0    0 -6.2298011803e-18 -4.4025901805e-18 -2.3730894541e-15 5.1100000000e-04 5.1099893000e-04 0.0000e+00 1.0000e+00
       50  1    1    2    0    0 +1.1250164113e-01 +8.8857955153e-02 +5.0790580137e+01 5.0790782707e+01 4.9935713700e-03 0.0000e+00 0.0000e+00
       11  1    1    2    0    0 +2.2032511995e-02 +6.2171081329e-03 +4.5689482177e-01 4.5746827573e-01 5.1099893000e-04 0.0000e+00 1.0000e+00
<vert_displacement>
484.19758506950194
</vert_displacement>
</event>
<event>
 4   1200 +8.5212000e+10 3.79586600e-02 7.81665300e-03            nan
       50 -1    0    0    0    0 -2.8723892897e-02 -2.2470087494e-02 +9.7043550861e+00 9.7044248948e+00 4.9935713700e-03 0.0000e+00 0.0000e+00
       11 -1    0    0    0    0 -4.9291841328e-19 -3.8559953951e-19 +1.6653227778e-16 5.1100000000e-04 5.1099893000e-04 0.0000e+00 1.0000e+00
       50  1    1    2    0    0 +9.1189556561e-03 -3.6882485672e-02 +8.0288946371e+00 8.0289860818e+00 4.9935713700e-03 0.0000e+00 0.0000e+00
       11  1    1    2    0    0 -3.7842848553e-02 +1.4412398177e-02 +1.6754604490e+00 1.6759498130e+00 5.1099893000e-04 0.0000e+00 1.0000e+00
<vert_displacement>
250.24173528382460
</vert_displacement>
</event>
<event>
 4   1200 +8.5212000e+10 2.35391200e-02 7.81665300e-03            nan
       50 -1    0    0    0    0 +2.3506313693e-02 +2.7868617667e-02 +1.4340709573e+01 1.4340756786e+01 4.9935713700e-03 0.0000e+00 0.0000e+00
       11 -1    0    0    0    0 -1.2397360455e-18 -1.4698063810e-18 -7.5633699133e-16 5.1100000000e-04 5.1099893000e-04 0.0000e+00 1.0000e+00
       50  1    1    2    0    0 +1.7989328884e-02 +4.9354622303e-02 +1.3802675557e+01 1.3802776422e+01 4.9935713700e-03 0.0000e+00 0.0000e+00
       11  1    1    2    0    0 +5.5169848088e-03 -2.1486004636e-02 +5.3803401594e-01 5.3849136385e-01 5.1099893000e-04 0.0000e+00 1.0000e+00
<vert_displacement>
359.63967435018770
</vert_displacement>
</event>
<event>
 4   1200 +8.5212000e+10 1.04370800e-02 7.81665300e-03            nan
       50 -1    0    0    0    0 +3.0193346227e-02 -1.8675198322e-02 +8.9793505295e+00 8.9794221010e+00 4.9935713700e-03 0.0000e+00 0.0000e+00
       11 -1    0    0    0    0 +3.2664890742e-18 -2.0203898839e-18 +9.7143755374e-16 5.1100000000e-04 5.1099893000e-04 0.0000e+00 1.0000e+00
       50  1    1    2    0    0 +2.2605502969e-02 -2.4032302910e-02 +8.8964022207e+00 8.8964648018e+00 4.9935713700e-03 0.0000e+00 0.0000e+00
       11  1    1    2    0    0 +7.5878432578e-03 +5.3571045878e-03 +8.2948308784e-02 8.3468299281e-02 5.1099893000e-04 0.0000e+00 1.0000e+00
<vert_displacement>
451.99404777357211
</vert_displacement>
</event>
<event>
 4   1200 +8.5212000e+10 3.48240100e-02 7.81665300e-03            nan
       50 -1    0    0    0    0 -4.0255711543e-03 -1.3609587991e-03 +1.2557042910e+01 1.2557044622e+01 4.9935713700e-03 0.0000e+00 0.0000e+00
       11 -1    0    0    0    0 -5.0273461687e-19 -1.6996373290e-19 +1.5681899325e-15 5.1100000000e-04 5.1099893000e-04 0.0000e+00 1.0000e+00
       50  1    1    2    0    0 +1.8383526103e-02 -2.7754612391e-02 +1.1260705743e+01 1.1260756060e+01 4.9935713700e-03 0.0000e+00 0.0000e+00
       11  1    1    2    0    0 -2.2409097257e-02 +2.6393653592e-02 +1.2963371671e+00 1.2967995622e+00 5.1099893000e-04 0.0000e+00 1.0000e+00
<vert_displacement>
318.25854216451802
</vert_displacement>
</event>
<event>
 4   1200 +8.5212000e+10 4.59603500e-02 7.81665300e-03            nan
       50 -1    0    0    0    0 +1.7913791321e-02 +1.8082443507e-02 +8.1978306118e+00 8.1978716478e+00 4.9935713700e-03 0.0000e+00 0.0000e+00
       11 -1    0    0    0    0 -2.2744059518e-19 -2.2958187018e-19 -1.0408290686e-16 5.1100000000e-04 5.1099893000e-04 0.0000e+00 1.0000e+00
       50  1    1    2    0    0 +2.0883949449e-02 -3.5176732377e-02 +4.0282036905e+00 4.0284145082e+00 4.9935713700e-03 0.0000e+00 0.0000e+00
       11  1    1    2    0    0 -2.9701581280e-03 +5.3259175883e-02 +4.1696269213e+00 4.1699681396e+00 5.1099893000e-04 0.0000e+00 1.0000e+00
<vert_displacement>
174.35864211470872
</vert_displacement>
</event>
<event>
 4   1200 +8.5212000e+10 8.64230500e-03 7.81665300e-03            nan
       50 -1    0    0    0    0 +2.1979687371e-02 +6.5196262166e-03 +6.6166942792e+00 6.6167358820e+00 4.9935713700e-03 0.0000e+00 0.0000e+00
       11 -1    0    0    0    0 -5.3014652417e-19 -1.5725233573e-19 -1.5959360179e-16 5.1100000000e-04 5.1099893000e-04 0.0000e+00 1.0000e+00
       50  1    1    2    0    0 +2.2362203317e-02 +1.3503796438e-02 +6.5676344426e+00 6.5676882941e+00 4.9935713700e-03 0.0000e+00 0.0000e+00
       11  1    1    2    0    0 -3.8251594586e-04 -6.9841702209e-03 +4.9059836603e-02 4.9558587949e-02 5.1099893000e-04 0.0000e+00 1.0000e+00
<vert_displacement>
142.76681112859319
</vert_displacement>
</event>
<event>
 4   1200 +8.5212000e+10 1.90447800e-02 7.81665300e-03            nan
       50 -1    0    0    0    0 +1.0162718490e-01 -5.6566200183e-02 +2.9879825806e+01 2.9880052593e+01 4.9935713700e-03 0.0000e+00 0.0000e+00
       11 -1    0    0    0    0 -8.0241254226e-19 +4.4662684043e-19 -2.3592060540e-16 5.1100000000e-04 5.1099893000e-04 0.0000e+00 1.0000e+00
       50  1    1    2    0    0 +9.1107053377e-02 -7.1736015959e-02 +2.9545585735e+01 2.9545813713e+01 4.9935713700e-03 0.0000e+00 0.0000e+00
       11  1    1    2    0    0 +1.0520131526e-02 +1.5169815776e-02 +3.3424007061e-01 3.3474988036e-01 5.1099893000e-04 0.0000e+00 1.0000e+00
<vert_displacement>
57.032346665651225
</vert_displacement>
</event>
<event>
 4   1200 +8.5212000e+10 2.02906300e-02 7.81665300e-03            nan
       50 -1    0    0    0    0 +2.8445134116e-02 -5.3011090214e-03 +1.8105330448e+01 1.8105354257e+01 4.9935713700e-03 0.0000e+00 0.0000e+00
       11 -1    0    0    0    0 -7.6311372145e-19 +1.4221585374e-19 -4.8572195299e-16 5.1100000000e-04 5.1099893000e-04 0.0000e+00 1.0000e+00
       50  1    1    2    0    0 +3.8781449820e-02 +1.1152403387e-02 +1.7718588161e+01 1.7718634816e+01 4.9935713700e-03 0.0000e+00 0.0000e+00
       11  1    1    2    0    0 -1.0336315704e-02 -1.6453512409e-02 +3.8674228648e-01 3.8723044142e-01 5.1099893000e-04 0.0000e+00 1.0000e+00
<vert_displacement>
32.948536033652900
</vert_displacement>
</event>
<event>
 4   1200 +8.5212000e+10 5.26417800e-03 7.81665300e-03            nan
       50 -1    0    0    0    0 -2.7729924338e-02 +6.5190075612e-03 +1.3935516397e+01 1.3935546406e+01 4.9935713700e-03 0.0000e+00 0.0000e+00
       11 -1    0    0    0    0 -3.8660991620e-18 +9.0887841461e-19 +1.9428862340e-15 5.1100000000e-04 5.1099893000e-04 0.0000e+00 1.0000e+00
       50  1    1    2    0    0 -2.8457990647e-02 +8.0136753646e-03 +1.3932797549e+01 1.3932829812e+01 4.9935713700e-03 0.0000e+00 0.0000e+00
       11  1    1    2    0    0 +7.2806630919e-04 -1.4946678033e-03 +2.7188480221e-03 3.2275945945e-03 5.1099893000e-04 0.0000e+00 1.0000e+00
<vert_displacement>
76.411496300093376
</vert_displacement>
</event>
<event>
 4   1200 +8.5212000e+10 1.48783900e-02 7.81665300e-03            nan
       50 -1    0    0    0    0 +4.8126243363e-03 +7.4756341583e-03 +2.1620531074e+01 2.1620533479e+01 4.9935713700e-03 0.0000e+00 0.0000e+00
       11 -1    0    0    0    0 +1.0811945697e-19 +1.6794610367e-19 +4.8572253221e-16 5.1100000000e-04 5.1099893000e-04 0.0000e+00 1.0000e+00
       50  1    1    2    0    0 +5.2171456951e-03 -6.5996506429e-03 +2.1426587172e+01 2.1426589406e+01 4.9935713700e-03 0.0000e+00 0.0000e+00
       11  1    1    2    0    0 -4.0452135876e-04 +1.4075284801e-02 +1.9394390204e-01 1.9445507332e-01 5.1099893000e-04 0.0000e+00 1.0000e+00
<vert_displacement>
200.09513401041156
</vert_displacement>
</event>
<event>
 4   1200 +8.5212000e+10 4.25660200e-02 7.81665300e-03            nan
       50 -1    0    0    0    0 +4.7082968379e-02 +4.0468813308e-02 +1.8597020495e+01 1.8597124798e+01 4.9935713700e-03 0.0000e+00 0.0000e+00
       11 -1    0    0    0    0 -3.5134864942e-20 -3.0199164132e-20 -1.3877710474e-17 5.1100000000e-04 5.1099893000e-04 0.0000e+00 1.0000e+00
       50  1    1    2    0    0 +7.7876154156e-02 +1.3643354830e-02 +1.6642881430e+01 1.6643069971e+01 4.9935713700e-03 0.0000e+00 0.0000e+00
       11  1    1    2    0    0 -3.0793185777e-02 +2.6825458478e-02 +1.9541390645e+00 1.9545658265e+00 5.1099893000e-04 0.0000e+00 1.0000e+00
<vert_displacement>
222.04642053850009
</vert_displacement>
</event>
<event>
 4   1200 +8.5212000e+10 1.50493500e-02 7.81665300e-03            nan
       50 -1    0    0    0    0 -2.6703378316e-03 -4.7609443274e-02 +2.2670116959e+01 2.2670167658e+01 4.9935713700e-03 0.0000e+00 0.0000e+00
       11 -1    0    0    0    0 +2.1087322513e-19 +3.7596579471e-18 -1.7902306670e-15 5.1100000000e-04 5.1099893000e-04 0.0000e+00 1.0000e+00
       50  1    1    2    0    0 -3.6432003083e-03 -6.1353299600e-02 +2.2471126632e+01 2.2471211239e+01 4.9935713700e-03 0.0000e+00 0.0000e+00
       11  1    1    2    0    0 +9.7286247676e-04 +1.3743856327e-02 +1.9899032660e-01 1.9946741901e-01 5.1099893000e-04 0.0000e+00 1.0000e+00
<vert_displacement>
249.87623237177189
</vert_displacement>
</event>
<event>
 4   1200 +8.5212000e+10 3.30679400e-02 7.81665300e-03            nan
       50 -1    0    0    0    0 +1.2219995922e-02 -4.9795610540e-03 +4.7824269712e+01 4.7824271793e+01 4.9935713700e-03 0.0000e+00 0.0000e+00
       11 -1    0    0    0    0 -3.1559705864e-19 +1.2860354717e-19 -1.2351230679e-15 5.1100000000e-04 5.1099893000e-04 0.0000e+00 1.0000e+00
       50  1    1    2    0    0 -2.0151602520e-02 +1.3164673561e-03 +4.6754787909e+01 4.6754792537e+01 4.9935713700e-03 0.0000e+00 0.0000e+00
       11  1    1    2    0    0 +3.2371598442e-02 -6.2960284101e-03 +1.0694818027e+00 1.0699902559e+00 5.1099893000e-04 0.0000e+00 1.0000e+00
<vert_displacement>
417.53251949851705
</vert_displacement>
</event>
<event>
 4   1200 +8.5212000e+10 6.11142900e-02 7.81665300e-03            nan
       50 -1    0    0    0    0 +3.2297426947e-02 -1.9342195529e-02 +1.7280690571e+01 1.7280732299e+01 4.9935713700e-03 0.0000e+00 0.0000e+00
       11 -1    0    0    0    0 +7.7812128942e-20 -4.6599916921e-20 +4.1633264629e-17 5.1100000000e-04 5.1099893000e-04 0.0000e+00 1.0000e+00
       50  1    1    2    0    0 -4.8040512504e-03 -6.7930893397e-02 +1.2087735787e+01 1.2087928651e+01 4.9935713700e-03 0.0000e+00 0.0000e+00
       11  1    1    2    0    0 +3.7101478198e-02 +4.8588697868e-02 +5.1929547843e+00 5.1933146481e+00 5.1099893000e-04 0.0000e+00 1.0000e+00
<vert_displacement>
382.48832389809405
</vert_displacement>
</event>
<event>
 4   1200 +8.5212000e+10 1.49844300e-02 7.81665300e-03            nan
       50 -1    0    0    0    0 +1.8105426458e-02 -9.6922314426e-03 +1.0471641386e+01 1.0471662714e+01 4.9935713700e-03 0.0000e+00 0.0000e+00
       11 -1    0    0    0    0 +8.1581619535e-19 -4.3672428255e-19 +4.7184387809e-16 5.1100000000e-04 5.1099893000e-04 0.0000e+00 1.0000e+00
       50  1    1    2    0    0 +2.7635076025e-02 +5.9667256905e-04 +1.0272529384e+01 1.0272567787e+01 4.9935713700e-03 0.0000e+00 0.0000e+00
       11  1    1    2    0    0 -9.5296495671e-03 -1.0288904012e-02 +1.9911200145e-01 1.9960592678e-01 5.1099893000e-04 0.0000e+00 1.0000e+00
<vert_displacement>
351.66137491379953
</vert_displacement>
</event>
<event>
 4   1200 +8.5212000e+10 2.08104900e-02 7.81665300e-03            nan
       50 -1    0    0    0    0 +7.5200281882e-03 +2.3440000905e-02 +1.4021611509e+01 1.4021634007e+01 4.9935713700e-03 0.0000e+00 0.0000e+00
       11 -1    0    0    0    0 -3.7586552214e-19 -1.1715764833e-18 -7.0082720424e-16 5.1100000000e-04 5.1099893000e-04 0.0000e+00 1.0000e+00
       50  1    1    2    0    0 +2.0816431722e-02 +7.7378600401e-03 +1.3610165238e+01 1.3610184273e+01 4.9935713700e-03 0.0000e+00 0.0000e+00
       11  1    1    2    0    0 -1.3296403534e-02 +1.5702140865e-02 +4.1144627095e-01 4.1196073426e-01 5.1099893000e-04 0.0000e+00 1.0000e+00
<vert_displacement>
193.56037703863490
</vert_displacement>
</event>
<event>
 4   1200 +8.5212000e+10 5.41840000e-02 7.81665300e-03            nan
       50 -1    0    0    0    0 +6.3596059781e-02 +1.6914084927e-02 +2.0372589551e+01 2.0372696446e+01 4.9935713700e-03 0.0000e+00 0.0000e+00
       11 -1    0    0    0    0 +2.9891729345e-18 +7.9500404665e-19 +9.5756236316e-16 5.1100000000e-04 5.1099893000e-04 0.0000e+00 1.0000e+00
       50  1    1    2    0    0 +1.0685343615e-01 +1.3349130703e-02 +1.6947647174e+01 1.6947990014e+01 4.9935713700e-03 0.0000e+00 0.0000e+00
       11  1    1    2    0    0 -4.3257376371e-02 +3.5649542240e-03 +3.4249423767e+00 3.4252174317e+00 5.1099893000e-04 0.0000e+00 1.0000e+00
<vert_displacement>
132.68194276730600
</vert_displacement>
</event>
<event>
 4   1200 +8.5212000e+10 1.17000900e-02 7.81665300e-03            nan
       50 -1    0    0    0    0 +1.2120160919e-02 +2.0254184825e-02 +1.5847353057e+01 1.5847371422e+01 4.9935713700e-03 0.0000e+00 0.0000e+00
       11 -1    0    0    0    0 -6.5805637850e-19 -1.0996879995e-18 -8.6042188970e-16 5.1100000000e-04 5.1099893000e-04 0.0000e+00 1.0000e+00
       50  1    1    2    0    0 +5.5286929707e-03 +1.1769700837e-02 +1.5737049843e+01 1.5737056008e+01 4.9935713700e-03 0.0000e+00 0.0000e+00
       11  1    1    2    0    0 +6.5914679487e-03 +8.4844839880e-03 +1.1030321457e-01 1.1082641465e-01 5.1099893000e-04 0.0000e+00 1.0000e+00
<vert_displacement>
376.48707665208326
</vert_displacement>
</event>
<event>
 4   1200 +8.5212000e+10 4.34180200e-02 7.81665300e-03            nan
       50 -1    0    0    0    0 -3.1788526692e-02 +7.1595286185e-03 +2.2708682377e+01 2.2708706304e+01 4.9935713700e-03 0.0000e+00 0.0000e+00
       11 -1    0    0    0    0 +1.0101866003e-18 -2.2751793265e-19 -7.2164422309e-16 5.1100000000e-04 5.1099893000e-04 0.0000e+00 1.0000e+00
       50  1    1    2    0    0 -1.4600880710e-02 +4.7187465892e-02 +2.0712918857e+01 2.0712978356e+01 4.9935713700e-03 0.0000e+00 0.0000e+00
       11  1    1    2    0    0 -1.7187645982e-02 -4.0027937274e-02 +1.9957635196e+00 1.9962389482e+00 5.1099893000e-04 0.0000e+00 1.0000e+00
<vert_displacement>
438.43239977838579
</vert_displacement>
</event>
<event>
 4   1200 +8.5212000e+10 3.83254400e-02 7.81665300e-03            nan
       50 -1    0    0    0    0 +5.1730376771e-02 -9.9756460608e-03 +1.7668167866e+01 1.7668247118e+01 4.9935713700e-03 0.0000e+00 0.0000e+00
       11 -1    0    0    0    0 +2.6411057664e-18 -5.0930880422e-19 +9.0205219731e-16 5.1100000000e-04 5.1099893000e-04 0.0000e+00 1.0000e+00
       50  1    1    2    0    0 +8.0710063807e-02 -2.7008561076e-02 +1.6119247214e+01 1.6119472673e+01 4.9935713700e-03 0.0000e+00 0.0000e+00
       11  1    1    2    0    0 -2.8979687036e-02 +1.7032915015e-02 +1.5489206521e+00 1.5492854450e+00 5.1099893000e-04 0.0000e+00 1.0000e+00
<vert_displacement>
187.03473806452723
</vert_displacement>
</event>
<event>
 4   1200 +8.5212000e+10 8.78038000e-03 7.81665300e-03            nan
       50 -1    0    0    0    0 +8.0416970214e-04 -2.3443289745e-03 +4.5035265283e+00 4.5035299788e+00 4.9935713700e-03 0.0000e+00 0.0000e+00
       11 -1    0    0    0    0 -1.1151355782e-20 +3.2508619007e-20 -6.2450035678e-17 5.1100000000e-04 5.1099893000e-04 0.0000e+00 1.0000e+00
       50  1    1    2    0    0 +4.5395341035e-03 -8.4929968977e-03 +4.4518850566e+00 4.4518982727e+00 4.9935713700e-03 0.0000e+00 0.0000e+00
       11  1    1    2    0    0 -3.7353644014e-03 +6.1486679232e-03 +5.1641471776e-02 5.2142706024e-02 5.1099893000e-04 0.0000e+00 1.0000e+00
<vert_displacement>
429.88724065819002
</vert_displacement>
</event>
<event>
 4   1200 +8.5212000e+10 5.12061000e-02 7.81665300e-03            nan
       50 -1    0    0    0    0 -5.3786724815e-02 +4.2280474050e-02 +1.8486626896e+01 1.8486754165e+01 4.9935713700e-03 0.0000e+00 0.0000e+00
       11 -1    0    0    0    0 -6.8641001904e-18 +5.3957070444e-18 +2.3592077716e-15 5.1100000000e-04 5.1099893000e-04 0.0000e+00 1.0000e+00
       50  1    1    2    0    0 -4.5821579449e-02 -1.5632694075e-02 +1.5444004318e+01 1.5444081012e+01 4.9935713700e-03 0.0000e+00 0.0000e+00
       11  1    1    2    0    0 -7.9651453659e-03 +5.7913168126e-02 +3.0426225782e+00 3.0431841536e+00 5.1099893000e-04 0.0000e+00 1.0000e+00
<vert_displacement>
332.14599846189100
</vert_displacement>
</event>
<event>
 4   1200 +8.5212000e+10 5.43509800e-03 7.81665300e-03            nan
       50 -1    0    0    0    0 +1.1114332671e-02 -9.7131344840e-03 +6.9494326998e+00 6.9494501695e+00 4.9935713700e-03 0.0000e+00 0.0000e+00
       11 -1    0    0    0    0 -1.4759612202e-18 +1.2898848945e-18 -9.2287080753e-16 5.1100000000e-04 5.1099893000e-04 0.0000e+00 1.0000e+00
       50  1    1    2    0    0 +1.1074969476e-02 -7.5612583159e-03 +6.9449270798e+00 6.9449418217e+00 4.9935713700e-03 0.0000e+00 0.0000e+00
       11  1    1    2    0    0 +3.9363195316e-05 -2.1518761680e-03 +4.5056199896e-03 5.0193477565e-03 5.1099893000e-04 0.0000e+00 1.0000e+00
<vert_displacement>
3.6935090978379876
</vert_displacement>
</event>
<event>
 4   1200 +8.5212000e+10 3.75347500e-02 7.81665300e-03            nan
       50 -1    0    0    0    0 -8.4914058372e-02 -5.4297870318e-02 +2.5055350655e+01 2.5055553876e+01 4.9935713700e-03 0.0000e+00 0.0000e+00
       11 -1    0    0    0    0 +7.8073550476e-18 +4.9923741725e-18 -2.3036941369e-15 5.1100000000e-04 5.1099893000e-04 0.0000e+00 1.0000e+00
       50  1    1    2    0    0 -6.5448723183e-02 -8.5402422616e-02 +2.3618729126e+01 2.3618974736e+01 4.9935713700e-03 0.0000e+00 0.0000e+00
       11  1    1    2    0    0 -1.9465335189e-02 +3.1104552298e-02 +1.4366215295e+00 1.4370901408e+00 5.1099893000e-04 0.0000e+00 1.0000e+00
<vert_displacement>
331.43752757193647
</vert_displacement>
</event>
<event>
 4   1200 +8.5212000e+10 7.94722900e-03 7.81665300e-03            nan
       50 -1    0    0    0    0 -1.1123754974e-02 -1.9127249129e-02 +8.6478910667e+00 8.6479208152e+00 4.9935713700e-03 0.0000e+00 0.0000e+00
       11 -1    0    0    0    0 +1.1513828055e-18 +1.9797978124e-18 -8.9511438366e-16 5.1100000000e-04 5.1099893000e-04 0.0000e+00 1.0000e+00
       50  1    1    2    0    0 -1.7007312824e-02 -2.0786394579e-02 +8.6103139641e+00 8.6103572992e+00 4.9935713700e-03 0.0000e+00 0.0000e+00
       11  1    1    2    0    0 +5.8835578497e-03 +1.6591454500e-03 +3.7577102572e-02 3.8074516073e-02 5.1099893000e-04 0.0000e+00 1.0000e+00
<vert_displacement>
281.91101440473699
</vert_displacement>
</event>
<event>
 4   1200 +8.5212000e+10 1.42985600e-02 7.81665300e-03            nan
       50 -1    0    0    0    0 -1.1278336530e-02 -3.3281331367e-02 +1.5444587098e+01 1.5444627882e+01 4.9935713700e-03 0.0000e+00 0.0000e+00
       11 -1    0    0    0    0 -5.6751310237e-19 -1.6746788470e-18 +7.7715410566e-16 5.1100000000e-04 5.1099893000e-04 0.0000e+00 1.0000e+00
       50  1    1    2    0    0 +1.8620245624e-03 -2.9698862581e-02 +1.5266901686e+01 1.5266931502e+01 4.9935713700e-03 0.0000e+00 0.0000e+00
       11  1    1    2    0    0 -1.3140361092e-02 -3.5824687864e-03 +1.7768541280e-01 1.7820737980e-01 5.1099893000e-04 0.0000e+00 1.0000e+00
<vert_displacement>
240.66319769751379
</vert_displacement>
</event>
<event>
 4   1200 +8.5212000e+10 1.48520600e-02 7.81665300e-03            nan
       50 -1    0    0    0    0 -1.8663280932e-02 +7.7748414553e-03 +1.0140240316e+01 1.0140261701e+01 4.9935713700e-03 0.0000e+00 0.0000e+00
       11 -1    0    0    0    0 +1.5580771570e-18 -6.4907145291e-19 -8.4654337361e-16 5.1100000000e-04 5.1099893000e-04 0.0000e+00 1.0000e+00
       50  1    1    2    0    0 -7.2317003369e-03 -9.2185202971e-04 +9.9450547026e+00 9.9450586283e+00 4.9935713700e-03 0.0000e+00 0.0000e+00
       11  1    1    2    0    0 -1.1431580595e-02 +8.6966934850e-03 +1.9518561363e-01 1.9571407308e-01 5.1099893000e-04 0.0000e+00 1.0000e+00
<vert_displacement>
453.99791835718372
</vert_displacement>
</event>
<event>
 4   1200 +8.5212000e+10 1.40359400e-02 7.81665300e-03            nan
       50 -1    0    0    0    0 +2.0928960945e-03 +5.5055856189e-04 +3.5919165850e+00 3.5919207080e+00 4.9935713700e-03 0.0000e+00 0.0000e+00
       11 -1    0    0    0    0 -2.0013211836e-19 -5.2646880829e-20 -3.4347518590e-16 5.1100000000e-04 5.1099893000e-04 0.0000e+00 1.0000e+00
       50  1    1    2    0    0 +9.5945920065e-03 +1.1211559337e-02 +3.4147188822e+00 3.4147544180e+00 4.9935713700e-03 0.0000e+00 0.0000e+00
       11  1    1    2    0    0 -7.5016959121e-03 -1.0661000775e-02 +1.7719770283e-01 1.7767729002e-01 5.1099893000e-04 0.0000e+00 1.0000e+00
<vert_displacement>
56.263945032688767
</vert_displacement>
</event>
<event>
 4   1200 +8.5212000e+10 1.15936700e-02 7.81665300e-03            nan
       50 -1    0    0    0    0 +4.1764868395e-03 -3.7864532082e-02 +1.5661783933e+01 1.5661831058e+01 4.9935713700e-03 0.0000e+00 0.0000e+00
       11 -1    0    0    0    0 +2.3314676650e-19 -2.1137366306e-18 +8.7429804568e-16 5.1100000000e-04 5.1099893000e-04 0.0000e+00 1.0000e+00
       50  1    1    2    0    0 +1.3353945399e-03 -4.7681824544e-02 +1.5553892318e+01 1.5553966263e+01 4.9935713700e-03 0.0000e+00 0.0000e+00
       11  1    1    2    0    0 +2.8410922996e-03 +9.8172924618e-03 +1.0789161515e-01 1.0837579424e-01 5.1099893000e-04 0.0000e+00 1.0000e+00
<vert_displacement>
49.001134592576044
</vert_displacement>
</event>
<event>
 4   1200 +8.5212000e+10 2.55302600e-02 7.81665300e-03            nan
       50 -1    0    0    0    0 +8.7521548063e-03 -1.7792424517e-02 +1.3359633417e+01 1.3359649065e+01 4.9935713700e-03 0.0000e+00 0.0000e+00
       11 -1    0    0    0    0 -3.1820592220e-20 +6.4688696408e-20 -4.8572203828e-17 5.1100000000e-04 5.1099893000e-04 0.0000e+00 1.0000e+00
       50  1    1    2    0    0 -4.7024857521e-03 -3.8311925594e-02 +1.2715074226e+01 1.2715133795e+01 4.9935713700e-03 0.0000e+00 0.0000e+00
       11  1    1    2    0    0 +1.3454640558e-02 +2.0519501076e-02 +6.4455919113e-01 6.4502627021e-01 5.1099893000e-04 0.0000e+00 1.0000e+00
<vert_displacement>
308.61435549971458
</vert_displacement>
</event>
<event>
 4   1200 +8.5212000e+10 1.01834000e-01 7.81665300e-03            nan
       50 -1    0    0    0    0 +1.1905392424e-01 -1.2939155384e-02 +4.3875555363e+01 4.3875719078e+01 4.9935713700e-03 0.0000e+00 0.0000e+00
       11 -1    0    0    0    0 -1.5439156530e-18 +1.6779761491e-19 -5.6898718072e-16 5.1100000000e-04 5.1099893000e-04 0.0000e+00 1.0000e+00
       50  1    1    2    0    0 +1.4479120801e-01 -6.0162042501e-03 +1.5879475531e+01 1.5880137555e+01 4.9935713700e-03 0.0000e+00 0.0000e+00
       11  1    1    2    0    0 -2.5737283769e-02 -6.9229511337e-03 +2.7996079831e+01 2.7996092522e+01 5.1099893000e-04 0.0000e+00 1.0000e+00
<vert_displacement>
436.27806092539345
</vert_displacement>
</event>
<event>
 4   1200 +8.5212000e+10 6.24686900e-02 7.81665300e-03            nan
       50 -1    0    0    0    0 +7.3123951863e-02 +4.7686517409e-02 +4.2101585268e+01 4.2101676073e+01 4.9935713700e-03 0.0000e+00 0.0000e+00
       11 -1    0    0    0    0 -7.2551602600e-18 -4.7313269760e-18 -4.1772051501e-15 5.1100000000e-04 5.1099893000e-04 0.0000e+00 -1.0000e+00
       50  1    1    2    0    0 +8.0895309701e-02 -1.7500802235e-02 +3.7885127547e+01 3.7885218285e+01 4.9935713700e-03 0.0000e+00 0.0000e+00
       11  1    1    2    0    0 -7.7713578382e-03 +6.5187319644e-02 +4.2164577213e+00 4.2169687878e+00 5.1099893000e-04 0.0000e+00 -1.0000e+00
<vert_displacement>
52.349456434761606
</vert_displacement>
</event>
<event>
 4   1200 +8.5212000e+10 1.28741000e-02 7.81665300e-03            nan
       50 -1    0    0    0    0 +1.3690738011e-02 -1.2095076738e-02 +2.3443640243e+01 2.3443647893e+01 4.9935713700e-03 0.0000e+00 0.0000e+00
       11 -1    0    0    0    0 +3.2417678721e-19 -2.8639384633e-19 +5.5511134378e-16 5.1100000000e-04 5.1099893000e-04 0.0000e+00 1.0000e+00
       50  1    1    2    0    0 +4.8188902284e-03 -1.9993936545e-02 +2.3305042327e+01 2.3305051937e+01 4.9935713700e-03 0.0000e+00 0.0000e+00
       11  1    1    2    0    0 +8.8718477824e-03 +7.8988598069e-03 +1.3859791635e-01 1.3910695600e-01 5.1099893000e-04 0.0000e+00 1.0000e+00
<vert_displacement>
62.824946344484815
</vert_displacement>
</event>
<event>
 4   1200 +8.5212000e+10 1.70378700e-02 7.81665300e-03            nan
       50 -1    0    0    0    0 +6.5890501234e-03 +2.0560963025e-02 +1.0669302747e+01 1.0669325762e+01 4.9935713700e-03 0.0000e+00 0.0000e+00
       11 -1    0    0    0    0 +1.4998373858e-19 +4.6802043474e-19 +2.4286078936e-16 5.1100000000e-04 5.1099893000e-04 0.0000e+00 1.0000e+00
       50  1    1    2    0    0 +2.2059866694e-02 +1.5477071049e-02 +1.0402986367e+01 1.0403022468e+01 4.9935713700e-03 0.0000e+00 0.0000e+00
       11  1    1    2    0    0 -1.5470816570e-02 +5.0838919758e-03 +2.6631638044e-01 2.6681429447e-01 5.1099893000e-04 0.0000e+00 1.0000e+00
<vert_displacement>
134.45723765828464
</vert_displacement>
</event>
<event>
 4   1200 +8.5212000e+10 6.20690100e-03 7.81665300e-03            nan
       50 -1    0    0    0    0 +1.0845414868e-02 +4.1457044955e-03 +6.0575842776e+00 6.0575974632e+00 4.9935713700e-03 0.0000e+00 0.0000e+00
       11 -1    0    0    0    0 -4.7208450998e-19 -1.8045624801e-19 -2.6367748399e-16 5.1100000000e-04 5.1099893000e-04 0.0000e+00 -1.0000e+00
       50  1    1    2    0    0 +1.4495902290e-02 +4.4348650397e-03 +6.0442496326e+00 6.0442707051e+00 4.9935713700e-03 0.0000e+00 0.0000e+00
       11  1    1    2    0    0 -3.6504874220e-03 -2.8916054418e-04 +1.3334644996e-02 1.3837758103e-02 5.1099893000e-04 0.0000e+00 -1.0000e+00
<vert_displacement>
143.72053320715125
</vert_displacement>
</event>
<event>
 4   1200 +8.5212000e+10 3.63517300e-02 7.81665300e-03            nan
       50 -1    0    0    0    0 +8.8598978313e-02 +5.6496810420e-02 +2.6974569908e+01 2.6974775037e+01 4.9935713700e-03 0.0000e+00 0.0000e+00
       11 -1    0    0    0    0 -3.9200317435e-18 -2.4996822139e-18 -1.1934806960e-15 5.1100000000e-04 5.1099893000e-04 0.0000e+00 1.0000e+00
       50  1    1    2    0    0 +1.1431428138e-01 +7.3463102151e-02 +2.5639710450e+01 2.5640071011e+01 4.9935713700e-03 0.0000e+00 0.0000e+00
       11  1    1    2    0    0 -2.5715303066e-02 -1.6966291731e-02 +1.3348594576e+00 1.3352150256e+00 5.1099893000e-04 0.0000e+00 1.0000e+00
<vert_displacement>
29.062489763101059
</vert_displacement>
</event>
<event>
 4   1200 +8.5212000e+10 1.54376600e-02 7.81665300e-03            nan
       50 -1    0    0    0    0 +2.1055804401e-03 -9.8688740937e-03 +7.4964133524e+00 7.4964218074e+00 4.9935713700e-03 0.0000e+00 0.0000e+00
       11 -1    0    0    0    0 +7.6010357072e-20 -3.5626121400e-19 +2.7061661707e-16 5.1100000000e-04 5.1099893000e-04 0.0000e+00 1.0000e+00
       50  1    1    2    0    0 +9.6683641700e-03 -2.2046680610e-02 +7.2814028936e+00 7.2814444012e+00 4.9935713700e-03 0.0000e+00 0.0000e+00
       11  1    1    2    0    0 -7.5627837299e-03 +1.2177806516e-02 +2.1501045882e-01 2.1548840616e-01 5.1099893000e-04 0.0000e+00 1.0000e+00
<vert_displacement>
377.77762069140761
</vert_displacement>
</event>
<event>
 4   1200 +8.5212000e+10 1.52121400e-02 7.81665300e-03            nan
       50 -1    0    0    0    0 -5.8976573759e-03 -5.9532638648e-03 +8.1175880733e+00 8.1175939346e+00 4.9935713700e-03 0.0000e+00 0.0000e+00
       11 -1    0    0    0    0 +1.6132160100e-19 +1.6284263337e-19 -2.2204448661e-16 5.1100000000e-04 5.1099893000e-04 0.0000e+00 1.0000e+00
       50  1    1    2    0    0 -1.1738617575e-02 +7.2592097789e-03 +7.9102393566e+00 7.9102529735e+00 4.9935713700e-03 0.0000e+00 0.0000e+00
       11  1    1    2    0    0 +5.8409601993e-03 -1.3212473644e-02 +2.0734871673e-01 2.0785196108e-01 5.1099893000e-04 0.0000e+00 1.0000e+00
<vert_displacement>
51.295248184222409
</vert_displacement>
</event>
<event>
 4   1200 +8.5212000e+10 8.93075400e-03 7.81665300e-03            nan
       50 -1    0    0    0    0 +1.0806720008e-02 +1.4251461718e-02 +6.1647895539e+00 6.1648175212e+00 4.9935713700e-03 0.0000e+00 0.0000e+00
       11 -1    0    0    0    0 +2.4327308287e-19 +3.2081862258e-19 +1.3877729403e-16 5.1100000000e-04 5.1099893000e-04 0.0000e+00 1.0000e+00
       50  1    1    2    0    0 +1.1943075550e-02 +2.1427458118e-02 +6.1106467666e+00 6.1106980465e+00 4.9935713700e-03 0.0000e+00 0.0000e+00
       11  1    1    2    0    0 -1.1363555420e-03 -7.1759963998e-03 +5.4142787286e-02 5.4630474675e-02 5.1099893000e-04 0.0000e+00 1.0000e+00
<vert_displacement>
313.24676379864070
</vert_displacement>
</event>
<event>
 4   1200 +8.5212000e+10 4.68593200e-02 7.81665300e-03            nan
       50 -1    0    0    0    0 +2.7743007660e-03 +4.6779553329e-02 +2.2915293495e+01 2.2915341955e+01 4.9935713700e-03 0.0000e+00 0.0000e+00
       11 -1    0    0    0    0 -1.6969491408e-19 -2.8613524461e-18 -1.4016536377e-15 5.1100000000e-04 5.1099893000e-04 0.0000e+00 -1.0000e+00
       50  1    1    2    0    0 +3.0604318226e-02 +4.7902375772e-03 +2.0545937945e+01 2.0545961904e+01 4.9935713700e-03 0.0000e+00 0.0000e+00
       11  1    1    2    0    0 -2.7830017460e-02 +4.1989315752e-02 +2.3693555498e+00 2.3698910513e+00 5.1099893000e-04 0.0000e+00 -1.0000e+00
<vert_displacement>
257.52076710115546
</vert_displacement>
</event>
<event>
 4   1200 +8.5212000e+10 2.31597100e-02 7.81665300e-03            nan
       50 -1    0    0    0    0 +8.9923802553e-02 +5.9886201079e-02 +2.8082117015e+01 2.8082325288e+01 4.9935713700e-03 0.0000e+00 0.0000e+00
       11 -1    0    0    0    0 +6.5769351978e-18 +4.3800156638e-18 +2.0538973951e-15 5.1100000000e-04 5.1099893000e-04 0.0000e+00 1.0000e+00
       50  1    1    2    0    0 +8.0976053966e-02 +8.0198266781e-02 +2.7572403729e+01 2.7572639722e+01 4.9935713700e-03 0.0000e+00 0.0000e+00
       11  1    1    2    0    0 +8.9477485876e-03 -2.0312065703e-02 +5.0971328519e-01 5.1019656647e-01 5.1099893000e-04 0.0000e+00 1.0000e+00
<vert_displacement>
121.61910388956733
</vert_displacement>
</event>
<event>
 4   1200 +8.5212000e+10 5.37554100e-03 7.81665300e-03            nan
       50 -1    0    0    0    0 +2.7651148677e-03 +2.4714892466e-02 +1.6105981294e+01 1.6106001268e+01 4.9935713700e-03 0.0000e+00 0.0000e+00
       11 -1    0    0    0    0 -5.3846087334e-19 -4.8128208839e-18 -3.1363763057e-15 5.1100000000e-04 5.1099893000e-04 0.0000e+00 1.0000e+00
       50  1    1    2    0    0 +9.3322552409e-04 +2.3929646262e-02 +1.6102106324e+01 1.6102124906e+01 4.9935713700e-03 0.0000e+00 0.0000e+00
       11  1    1    2    0    0 +1.8318893436e-03 +7.8524620326e-04 +3.8749700407e-03 4.3873617231e-03 5.1099893000e-04 0.0000e+00 1.0000e+00
<vert_displacement>
243.32401851011713
</vert_displacement>
</event>
<event>
 4   1200 +8.5212000e+10 1.33255900e-02 7.81665300e-03            nan
       50 -1    0    0    0    0 +3.0073175554e-02 +1.0542829212e-02 +1.1063634956e+01 1.1063681978e+01 4.9935713700e-03 0.0000e+00 0.0000e+00
       11 -1    0    0    0    0 +2.3576531325e-18 +8.2652842139e-19 +8.6735813990e-16 5.1100000000e-04 5.1099893000e-04 0.0000e+00 1.0000e+00
       50  1    1    2    0    0 +1.7973816198e-02 +1.4402491360e-02 +1.0912229415e+01 1.0912254865e+01 4.9935713700e-03 0.0000e+00 0.0000e+00
       11  1    1    2    0    0 +1.2099359356e-02 -3.8596621485e-03 +1.5140554067e-01 1.5193811357e-01 5.1099893000e-04 0.0000e+00 1.0000e+00
<vert_displacement>
100.62710215818753
</vert_displacement>
</event>
<event>
 4   1200 +8.5212000e+10 7.77818100e-03 7.81665300e-03            nan
       50 -1    0    0    0    0 +2.2108075582e-02 +1.0827569504e-03 +7.1327080256e+00 7.1327441180e+00 4.9935713700e-03 0.0000e+00 0.0000e+00
       11 -1    0    0    0    0 +1.2689270680e-18 +6.2146503767e-20 +4.0939276908e-16 5.1100000000e-04 5.1099893000e-04 0.0000e+00 1.0000e+00
       50  1    1    2    0    0 +2.6306667073e-02 -3.0473557358e-03 +7.0977221331e+00 7.0977732946e+00 4.9935713700e-03 0.0000e+00 0.0000e+00
       11  1    1    2    0    0 -4.1985914904e-03 +4.1301126862e-03 +3.4985892494e-02 3.5481823442e-02 5.1099893000e-04 0.0000e+00 1.0000e+00
<vert_displacement>
472.44391831501406
</vert_displacement>
</event>
<event>
 4   1200 +8.5212000e+10 2.39125500e-02 7.81665300e-03            nan
       50 -1    0    0    0    0 -4.6807837732e-02 +3.6971206654e-02 +2.0026170818e+01 2.0026260270e+01 4.9935713700e-03 0.0000e+00 0.0000e+00
       11 -1    0    0    0    0 +3.9897353725e-18 -3.1512955543e-18 -1.7069603288e-15 5.1100000000e-04 5.1099893000e-04 0.0000e+00 1.0000e+00
       50  1    1    2    0    0 -6.8804437019e-02 +3.3767486241e-02 +1.9475869832e+01 1.9476021281e+01 4.9935713700e-03 0.0000e+00 0.0000e+00
       11  1    1    2    0    0 +2.1996599287e-02 +3.2037204131e-03 +5.5030098544e-01 5.5074998856e-01 5.1099893000e-04 0.0000e+00 1.0000e+00
<vert_displacement>
451.25657806496173
</vert_displacement>
</event>
<event>
 4   1200 +8.5212000e+10 6.18184400e-03 7.81665300e-03            nan
       50 -1    0    0    0    0 -3.6678759123e-02 -1.7606654186e-02 +1.0952534366e+01 1.0952611073e+01 4.9935713700e-03 0.0000e+00 0.0000e+00
       11 -1    0    0    0    0 +1.5801422066e-18 +7.5850486937e-19 -4.7184152996e-16 5.1100000000e-04 5.1099893000e-04 0.0000e+00 1.0000e+00
       50  1    1    2    0    0 -3.3449413860e-02 -1.5816536659e-02 +1.0939538289e+01 1.0939602001e+01 4.9935713700e-03 0.0000e+00 0.0000e+00
       11  1    1    2    0    0 -3.2293452630e-03 -1.7901175276e-03 +1.2996077117e-02 1.3520071447e-02 5.1099893000e-04 0.0000e+00 1.0000e+00
<vert_displacement>
328.71705595426465
</vert_displacement>
</event>
<event>
 4   1200 +8.5212000e+10 1.81843800e-02 7.81665300e-03            nan
       50 -1    0    0    0    0 +1.3255090839e-02 +8.4058232927e-03 +5.6869955968e+00 5.6870194486e+00 4.9935713700e-03 0.0000e+00 0.0000e+00
       11 -1    0    0    0    0 -4.5284172993e-19 -2.8717325348e-19 -1.9428828934e-16 5.1100000000e-04 5.1099893000e-04 0.0000e+00 1.0000e+00
       50  1    1    2    0    0 +2.8971097063e-02 +1.3851599258e-02 +5.3700324548e+00 5.3701307891e+00 4.9935713700e-03 0.0000e+00 0.0000e+00
       11  1    1    2    0    0 -1.5716006224e-02 -5.4457759658e-03 +3.1696314200e-01 3.1739965947e-01 5.1099893000e-04 0.0000e+00 1.0000e+00
<vert_displacement>
193.56644859331320
</vert_displacement>
</event>
<event>
 4   1200 +8.5212000e+10 1.14636200e-02 7.81665300e-03            nan
       50 -1    0    0    0    0 -6.8721878055e-03 +8.5687692580e-03 +5.4092095837e+00 5.4092230410e+00 4.9935713700e-03 0.0000e+00 0.0000e+00
       11 -1    0    0    0    0 +2.1157375998e-19 -2.6380634256e-19 -1.6653311035e-16 5.1100000000e-04 5.1099893000e-04 0.0000e+00 1.0000e+00
       50  1    1    2    0    0 +3.4807649986e-03 +9.8401755682e-03 +5.3029258576e+00 5.3029384808e+00 4.9935713700e-03 0.0000e+00 0.0000e+00
       11  1    1    2    0    0 -1.0352952804e-02 -1.2714063101e-03 +1.0628372613e-01 1.0679556014e-01 5.1099893000e-04 0.0000e+00 1.0000e+00
<vert_displacement>
91.229403354440009
</vert_displacement>
</event>
<event>
 4   1200 +8.5212000e+10 3.64430500e-02 7.81665300e-03            nan
       50 -1    0    0    0    0 +3.8166068082e-02 -2.8574878563e-02 +2.2524913783e+01 2.2524964795e+01 4.9935713700e-03 0.0000e+00 0.0000e+00
       11 -1    0    0    0    0 -2.5865819252e-19 +1.9365700508e-19 -1.5265532392e-16 5.1100000000e-04 5.1099893000e-04 0.0000e+00 1.0000e+00
       50  1    1    2    0    0 +3.5360045608e-03 -4.2911979383e-02 +2.1167978893e+01 2.1168023273e+01 4.9935713700e-03 0.0000e+00 0.0000e+00
       11  1    1    2    0    0 +3.4630063521e-02 +1.4337100820e-02 +1.3569348897e+00 1.3574525221e+00 5.1099893000e-04 0.0000e+00 1.0000e+00
<vert_displacement>
72.415469384791677
</vert_displacement>
</event>
<event>
 4   1200 +8.5212000e+10 1.46672900e-02 7.81665300e-03            nan
       50 -1    0    0    0    0 +4.6923657786e-02 -8.4146510729e-03 +1.9711242167e+01 1.9711300447e+01 4.9935713700e-03 0.0000e+00 0.0000e+00
       11 -1    0    0    0    0 -1.7179091053e-18 +3.0806647175e-19 -7.2164285547e-16 5.1100000000e-04 5.1099893000e-04 0.0000e+00 1.0000e+00
       50  1    1    2    0    0 +4.0378618298e-02 +4.0353175485e-03 +1.9523364851e+01 1.9523407662e+01 4.9935713700e-03 0.0000e+00 0.0000e+00
       11  1    1    2    0    0 +6.5450394881e-03 -1.2449968621e-02 +1.8787731564e-01 1.8840378476e-01 5.1099893000e-04 0.0000e+00 1.0000e+00
<vert_displacement>
315.31956623786255
</vert_displacement>
</event>
<event>
 4   1200 +8.5212000e+10 2.43560600e-02 7.81665300e-03            nan
       50 -1    0    0    0    0 +1.4169709097e-02 +5.9483618549e-02 +2.4041529369e+01 2.4041607651e+01 4.9935713700e-03 0.0000e+00 0.0000e+00
       11 -1    0    0    0    0 -1.5458931945e-18 -6.4895701438e-18 -2.6228934119e-15 5.1100000000e-04 5.1099893000e-04 0.0000e+00 1.0000e+00
       50  1    1    2    0    0 -6.3973959153e-03 +7.0682795420e-02 +2.3471943937e+01 2.3472051766e+01 4.9935713700e-03 0.0000e+00 0.0000e+00
       11  1    1    2    0    0 +2.0567105012e-02 -1.1199176871e-02 +5.6958543273e-01 5.7006688526e-01 5.1099893000e-04 0.0000e+00 1.0000e+00
<vert_displacement>
34.823351486157847
</vert_displacement>
</event>
<event>
 4   1200 +8.5212000e+10 1.74846800e-02 7.81665300e-03            nan
       50 -1    0    0    0    0 -6.1748047492e-02 -2.6283504339e-02 +5.5971085858e+01 5.5971126313e+01 4.9935713700e-03 0.0000e+00 0.0000e+00
       11 -1    0    0    0    0 +4.7461463035e-18 +2.0202316030e-18 -4.3021111281e-15 5.1100000000e-04 5.1099893000e-04 0.0000e+00 1.0000e+00
       50  1    1    2    0    0 -4.5112926640e-02 -2.2399929849e-02 +5.5695006575e+01 5.5695029574e+01 4.9935713700e-03 0.0000e+00 0.0000e+00
       11  1    1    2    0    0 -1.6635120852e-02 -3.8835744904e-03 +2.7607928277e-01 2.7660773830e-01 5.1099893000e-04 0.0000e+00 1.0000e+00
<vert_displacement>
461.14299065541275
</vert_displacement>
</event>
<event>
 4   1200 +8.5212000e+10 1.89244700e-02 7.81665300e-03            nan
       50 -1    0    0    0    0 +1.1437445634e-01 +3.9672558623e-02 +3.6509246953e+01 3.6509448002e+01 4.9935713700e-03 0.0000e+00 0.0000e+00
       11 -1    0    0    0    0 -1.1520992576e-17 -3.9962354184e-18 -3.6775935517e-15 5.1100000000e-04 5.1099893000e-04 0.0000e+00 1.0000e+00
       50  1    1    2    0    0 +1.2360819983e-01 +5.4409401123e-02 +3.6180201889e+01 3.6180454295e+01 4.9935713700e-03 0.0000e+00 0.0000e+00
       11  1    1    2    0    0 -9.2337434927e-03 -1.4736842500e-02 +3.2904506382e-01 3.2950470662e-01 5.1099893000e-04 0.0000e+00 1.0000e+00
<vert_displacement>
154.66873439091867
</vert_displacement>
</event>
<event>
 4   1200 +8.5212000e+10 1.72903500e-02 7.81665300e-03            nan
       50 -1    0    0    0    0 -3.0882921216e-02 -4.3608615054e-02 +2.2039287366e+01 2.2039352713e+01 4.9935713700e-03 0.0000e+00 0.0000e+00
       11 -1    0    0    0    0 +7.1951775680e-19 +1.0160040451e-18 -5.1347663960e-16 5.1100000000e-04 5.1099893000e-04 0.0000e+00 1.0000e+00
       50  1    1    2    0    0 -3.1240878291e-02 -2.6534393574e-02 +2.1767844113e+01 2.1767883277e+01 4.9935713700e-03 0.0000e+00 0.0000e+00
       11  1    1    2    0    0 +3.5795707464e-04 -1.7074221480e-02 +2.7144325286e-01 2.7198043646e-01 5.1099893000e-04 0.0000e+00 1.0000e+00
<vert_displacement>
170.92568749326449
</vert_displacement>
</event>
<event>
 4   1200 +8.5212000e+10 4.16013500e-02 7.81665300e-03            nan
       50 -1    0    0    0    0 +5.4081247199e-02 -4.2895369796e-02 +2.3447190911e+01 2.3447293050e+01 4.9935713700e-03 0.0000e+00 0.0000e+00
       11 -1    0    0    0    0 +9.9228387437e-19 -7.8704515776e-19 +4.3020955776e-16 5.1100000000e-04 5.1099893000e-04 0.0000e+00 1.0000e+00
       50  1    1    2    0    0 +5.1069285296e-02 +1.6977921294e-03 +2.1638548112e+01 2.1638609020e+01 4.9935713700e-03 0.0000e+00 0.0000e+00
       11  1    1    2    0    0 +3.0119619030e-03 -4.4593161926e-02 +1.8086427990e+00 1.8091950303e+00 5.1099893000e-04 0.0000e+00 1.0000e+00
<vert_displacement>
136.93619999940859
</vert_displacement>
</event>
<event>
 4   1200 +8.5212000e+10 7.11308300e-03 7.81665300e-03            nan
       50 -1    0    0    0    0 -7.7740921671e-02 +3.2169017056e-02 +5.7784718527e+01 5.7784779991e+01 4.9935713700e-03 0.0000e+00 0.0000e+00
       11 -1    0    0    0    0 +4.7423126446e-18 -1.9623582158e-18 -3.5249543669e-15 5.1100000000e-04 5.1099893000e-04 0.0000e+00 1.0000e+00
       50  1    1    2    0    0 -7.2867846856e-02 +3.3652203842e-02 +5.7759605265e+01 5.7759661248e+01 4.9935713700e-03 0.0000e+00 0.0000e+00
       11  1    1    2    0    0 -4.8730748143e-03 -1.4831867863e-03 +2.5113261177e-02 2.5629742645e-02 5.1099893000e-04 0.0000e+00 1.0000e+00
<vert_displacement>
387.57931544246128
</vert_displacement>
</event>
<event>
 4   1200 +8.5212000e+10 1.70694000e-02 7.81665300e-03            nan
       50 -1    0    0    0    0 -5.6784464085e-04 -8.1833714270e-03 +6.6452682584e+00 6.6452751976e+00 4.9935713700e-03 0.0000e+00 0.0000e+00
       11 -1    0    0    0    0 -3.9726630682e-20 -5.7251182988e-19 +4.6490553735e-16 5.1100000000e-04 5.1099893000e-04 0.0000e+00 1.0000e+00
       50  1    1    2    0    0 +3.1673948167e-03 -2.3743516130e-02 +6.3733718396e+00 6.3734188100e+00 4.9935713700e-03 0.0000e+00 0.0000e+00
       11  1    1    2    0    0 -3.7352394575e-03 +1.5560144703e-02 +2.7189641886e-01 2.7236738759e-01 5.1099893000e-04 0.0000e+00 1.0000e+00
<vert_displacement>
76.674519782676356
</vert_displacement>
</event>
<event>
 4   1200 +8.5212000e+10 1.64493200e-02 7.81665300e-03            nan
       50 -1    0    0    0    0 -1.0434327349e-02 -8.2610838926e-03 +1.2332534673e+01 1.2332542865e+01 4.9935713700e-03 0.0000e+00 0.0000e+00
       11 -1    0    0    0    0 +1.3737824499e-18 +1.0876534432e-18 -1.6237002281e-15 5.1100000000e-04 5.1099893000e-04 0.0000e+00 1.0000e+00
       50  1    1    2    0    0 +5.3914460616e-03 -6.7877012635e-03 +1.2087295680e+01 1.2087299820e+01 4.9935713700e-03 0.0000e+00 0.0000e+00
       11  1    1    2    0    0 -1.5825773410e-02 -1.4733826291e-03 +2.4523899247e-01 2.4575404474e-01 5.1099893000e-04 0.0000e+00 1.0000e+00
<vert_displacement>
319.26283949062815
</vert_displacement>
</event>
<event>
 4   1200 +8.5212000e+10 1.08550300e-02 7.81665300e-03            nan
       50 -1    0    0    0    0 -1.2782330167e-02 -2.6400065688e-03 +2.9507226677e+01 2.9507229987e+01 4.9935713700e-03 0.0000e+00 0.0000e+00
       11 -1    0    0    0    0 +6.6129391068e-19 +1.3658075213e-19 -1.5265565095e-15 5.1100000000e-04 5.1099893000e-04 0.0000e+00 1.0000e+00
       50  1    1    2    0    0 -9.4525027740e-03 -1.1691073576e-02 +2.9416047638e+01 2.9416051904e+01 4.9935713700e-03 0.0000e+00 0.0000e+00
       11  1    1    2    0    0 -3.3298273928e-03 +9.0510670076e-03 +9.1179039001e-02 9.1689082434e-02 5.1099893000e-04 0.0000e+00 1.0000e+00
<vert_displacement>
251.31019428263204
</vert_displacement>
</event>
<event>
 4   1200 +8.5212000e+10 1.01697700e-02 7.81665300e-03            nan
       50 -1    0    0    0    0 +4.1870523183e-03 -1.7659978294e-02 +1.0290886624e+01 1.0290903840e+01 4.9935713700e-03 0.0000e+00 0.0000e+00
       11 -1    0    0    0    0 -2.0044882482e-19 +8.4544486819e-19 -4.9266070097e-16 5.1100000000e-04 5.1099893000e-04 0.0000e+00 1.0000e+00
       50  1    1    2    0    0 +6.7251955734e-03 -2.6005698247e-02 +1.0213485061e+01 1.0213521604e+01 4.9935713700e-03 0.0000e+00 0.0000e+00
       11  1    1    2    0    0 -2.5381432550e-03 +8.3457199533e-03 +7.7401562707e-02 7.7893236177e-02 5.1099893000e-04 0.0000e+00 1.0000e+00
<vert_displacement>
340.97843748141582
</vert_displacement>
</event>
<event>
 4   1200 +8.5212000e+10 3.76206000e-02 7.81665300e-03            nan
       50 -1    0    0    0    0 +1.1203516537e-03 -1.7617158960e-02 +1.5480066485e+01 1.5480077356e+01 4.9935713700e-03 0.0000e+00 0.0000e+00
       11 -1    0    0    0    0 -9.6421244237e-20 +1.5161921538e-18 -1.3322667633e-15 5.1100000000e-04 5.1099893000e-04 0.0000e+00 1.0000e+00
       50  1    1    2    0    0 +2.8177516969e-02 -4.1442979788e-02 +1.3972507468e+01 1.3972598233e+01 4.9935713700e-03 0.0000e+00 0.0000e+00
       11  1    1    2    0    0 -2.7057165316e-02 +2.3825820828e-02 +1.5075590173e+00 1.5079901232e+00 5.1099893000e-04 0.0000e+00 1.0000e+00
<vert_displacement>
159.38359431323533
</vert_displacement>
</event>
<event>
 4   1200 +8.5212000e+10 1.39472100e-02 7.81665300e-03            nan
       50 -1    0    0    0    0 +4.9350512643e-02 +2.0854911049e-02 +1.4782952753e+01 1.4783050680e+01 4.9935713700e-03 0.0000e+00 0.0000e+00
       11 -1    0    0    0    0 -1.1350472859e-18 -4.7965682455e-19 -3.4000356838e-16 5.1100000000e-04 5.1099893000e-04 0.0000e+00 1.0000e+00
       50  1    1    2    0    0 +3.6579053147e-02 +2.5143198525e-02 +1.4615135306e+01 1.4615203562e+01 4.9935713700e-03 0.0000e+00 0.0000e+00
       11  1    1    2    0    0 +1.2771459496e-02 -4.2882874762e-03 +1.6781744636e-01 1.6835811834e-01 5.1099893000e-04 0.0000e+00 1.0000e+00
<vert_displacement>
272.09651349772196
</vert_displacement>
</event>
<event>
 4   1200 +8.5212000e+10 9.39840100e-03 7.81665300e-03            nan
       50 -1    0    0    0    0 -3.3572075111e-02 -3.0489244756e-02 +1.9484657733e+01 1.9484711149e+01 4.9935713700e-03 0.0000e+00 0.0000e+00
       11 -1    0    0    0    0 -1.2433912729e-18 -1.1292141079e-18 +7.2164301134e-16 5.1100000000e-04 5.1099893000e-04 0.0000e+00 1.0000e+00
       50  1    1    2    0    0 -3.5078168851e-02 -2.2594990736e-02 +1.9422437169e+01 1.9422482630e+01 4.9935713700e-03 0.0000e+00 0.0000e+00
       11  1    1    2    0    0 +1.5060937398e-03 -7.8942540196e-03 +6.2220563901e-02 6.2739519100e-02 5.1099893000e-04 0.0000e+00 1.0000e+00
<vert_displacement>
318.19811224587960
</vert_displacement>
</event>
<event>
 4   1200 +8.5212000e+10 2.44264500e-02 7.81665300e-03            nan
       50 -1    0    0    0    0 +1.2145751887e-02 +6.3979816316e-03 +1.3101391404e+01 1.3101399547e+01 4.9935713700e-03 0.0000e+00 0.0000e+00
       11 -1    0    0    0    0 -1.1000010581e-18 -5.7944428881e-19 -1.1865502062e-15 5.1100000000e-04 5.1099893000e-04 0.0000e+00 1.0000e+00
       50  1    1    2    0    0 -9.7762201105e-03 -4.5956013885e-03 +1.2515757593e+01 1.2515763251e+01 4.9935713700e-03 0.0000e+00 0.0000e+00
       11  1    1    2    0    0 +2.1921971998e-02 +1.0993583020e-02 +5.8563381090e-01 5.8614729661e-01 5.1099893000e-04 0.0000e+00 1.0000e+00
<vert_displacement>
221.39179939118767
</vert_displacement>
</event>
<event>
 4   1200 +8.5212000e+10 1.07008800e-02 7.81665300e-03            nan
       50 -1    0    0    0    0 -3.1659225210e-02 +2.0740785180e-03 +3.3330088502e+01 3.3330103977e+01 4.9935713700e-03 0.0000e+00 0.0000e+00
       11 -1    0    0    0    0 +2.7418721252e-18 -1.7962720302e-19 -2.8865785562e-15 5.1100000000e-04 5.1099893000e-04 0.0000e+00 1.0000e+00
       50  1    1    2    0    0 -2.7702070053e-02 +1.0703862155e-02 +3.3242213654e+01 3.3242227295e+01 4.9935713700e-03 0.0000e+00 0.0000e+00
       11  1    1    2    0    0 -3.9571551566e-03 -8.6297836366e-03 +8.7874848417e-02 8.8387682098e-02 5.1099893000e-04 0.0000e+00 1.0000e+00
<vert_displacement>
20.313007646886664
</vert_displacement>
</event>
<event>
 4   1200 +8.5212000e+10 2.51900100e-02 7.81665300e-03            nan
       50 -1    0    0    0    0 -2.5584110556e-02 -1.8359913896e-03 +1.2781719195e+01 1.2781745907e+01 4.9935713700e-03 0.0000e+00 0.0000e+00
       11 -1    0    0    0    0 +3.0000201711e-18 +2.1529031430e-19 -1.4987980653e-15 5.1100000000e-04 5.1099893000e-04 0.0000e+00 1.0000e+00
       50  1    1    2    0    0 -2.3763860448e-04 -7.1527318133e-03 +1.2154415920e+01 1.2154419052e+01 4.9935713700e-03 0.0000e+00 0.0000e+00
       11  1    1    2    0    0 -2.5346471951e-02 +5.3167404237e-03 +6.2730327501e-01 6.2783785433e-01 5.1099893000e-04 0.0000e+00 1.0000e+00
<vert_displacement>
204.07106839824510
</vert_displacement>
</event>
<event>
 4   1200 +8.5212000e+10 2.01013700e-02 7.81665300e-03            nan
       50 -1    0    0    0    0 -8.2886070384e-02 +3.9933488015e-02 +3.1677873166e+01 3.1678007167e+01 4.9935713700e-03 0.0000e+00 0.0000e+00
       11 -1    0    0    0    0 -2.9049183687e-19 +1.3995538976e-19 +1.1102183421e-16 5.1100000000e-04 5.1099893000e-04 0.0000e+00 1.0000e+00
       50  1    1    2    0    0 -8.3477315555e-02 +5.8867758733e-02 +3.1302419430e+01 3.1302586490e+01 4.9935713700e-03 0.0000e+00 0.0000e+00
       11  1    1    2    0    0 +5.9124517183e-04 -1.8934270718e-02 +3.7545373633e-01 3.7593167653e-01 5.1099893000e-04 0.0000e+00 1.0000e+00
<vert_displacement>
129.44688854986396
</vert_displacement>
</event>
<event>
 4   1200 +8.5212000e+10 1.46363000e-02 7.81665300e-03            nan
       50 -1    0    0    0    0 +2.2715774595e-02 +2.7784929160e-02 +1.5617481890e+01 1.5617523925e+01 4.9935713700e-03 0.0000e+00 0.0000e+00
       11 -1    0    0    0    0 +2.8259447803e-19 +3.4565704640e-19 +1.9428851631e-16 5.1100000000e-04 5.1099893000e-04 0.0000e+00 1.0000e+00
       50  1    1    2    0    0 +3.2449155413e-02 +3.6894037273e-02 +1.5429980209e+01 1.5430059245e+01 4.9935713700e-03 0.0000e+00 0.0000e+00
       11  1    1    2    0    0 -9.7333808186e-03 -9.1091081133e-03 +1.8750168094e-01 1.8797567936e-01 5.1099893000e-04 0.0000e+00 1.0000e+00
<vert_displacement>
298.57624926305931
</vert_displacement>
</event>
<event>
 4   1200 +8.5212000e+10 1.22556500e-02 7.81665300e-03            nan
       50 -1    0    0    0    0 +3.4037208629e-02 +2.7035319233e-02 +1.0944295487e+01 1.0944382946e+01 4.9935713700e-03 0.0000e+00 0.0000e+00
       11 -1    0    0    0    0 +1.0358435966e-18 +8.2275731292e-19 +3.3306428043e-16 5.1100000000e-04 5.1099893000e-04 0.0000e+00 1.0000e+00
       50  1    1    2    0    0 +4.4631507646e-02 +2.8898335383e-02 +1.0820274894e+01 1.0820406684e+01 4.9935713700e-03 0.0000e+00 0.0000e+00
       11  1    1    2    0    0 -1.0594299016e-02 -1.8630161499e-03 +1.2402059289e-01 1.2448726273e-01 5.1099893000e-04 0.0000e+00 1.0000e+00
<vert_displacement>
473.95731308776823
</vert_displacement>
</event>
<event>
 4   1200 +8.5212000e+10 1.10600700e-02 7.81665300e-03            nan
       50 -1    0    0    0    0 +1.7546517109e-02 -1.4199061863e-02 +1.1643611304e+01 1.1643634253e+01 4.9935713700e-03 0.0000e+00 0.0000e+00
       11 -1    0    0    0    0 -5.1237594968e-19 +4.1462688927e-19 -3.4000516241e-16 5.1100000000e-04 5.1099893000e-04 0.0000e+00 1.0000e+00
       50  1    1    2    0    0 +1.5248120524e-02 -2.3712637188e-02 +1.1547511084e+01 1.1547546578e+01 4.9935713700e-03 0.0000e+00 0.0000e+00
       11  1    1    2    0    0 +2.2983965848e-03 +9.5135753253e-03 +9.6100219250e-02 9.6598674951e-02 5.1099893000e-04 0.0000e+00 1.0000e+00
<vert_displacement>
420.82746425224127
</vert_displacement>
</event>
<event>
 4   1200 +8.5212000e+10 2.18700600e-02 7.81665300e-03            nan
       50 -1    0    0    0    0 +2.3090631824e-02 +1.7877187223e-02 +7.1674863008e+00 7.1675475289e+00 4.9935713700e-03 0.0000e+00 0.0000e+00
       11 -1    0    0    0    0 -8.7180668463e-19 -6.7496859517e-19 -2.7061461621e-16 5.1100000000e-04 5.1099893000e-04 0.0000e+00 1.0000e+00
       50  1    1    2    0    0 +4.1379685705e-02 +8.9120327467e-03 +6.6921908919e+00 6.6923266188e+00 4.9935713700e-03 0.0000e+00 0.0000e+00
       11  1    1    2    0    0 -1.8289053881e-02 +8.9651544767e-03 +4.7529540890e-01 4.7573191014e-01 5.1099893000e-04 0.0000e+00 1.0000e+00
<vert_displacement>
203.17416138777801
</vert_displacement>
</event>
<event>
 4   1200 +8.5212000e+10 3.22283600e-02 7.81665300e-03            nan
       50 -1    0    0    0    0 +2.8495068216e-02 -3.5710093779e-02 +1.3688914288e+01 1.3688991434e+01 4.9935713700e-03 0.0000e+00 0.0000e+00
       11 -1    0    0    0    0 -1.9499446944e-18 +2.4436757748e-18 -9.3674546013e-16 5.1100000000e-04 5.1099893000e-04 0.0000e+00 1.0000e+00
       50  1    1    2    0    0 +8.2481241162e-03 -6.6423012831e-03 +1.2612227304e+01 1.2612232739e+01 4.9935713700e-03 0.0000e+00 0.0000e+00
       11  1    1    2    0    0 +2.0246944100e-02 -2.9067792496e-02 +1.0766869832e+00 1.0772696952e+00 5.1099893000e-04 0.0000e+00 1.0000e+00
<vert_displacement>
56.420257202221407
</vert_displacement>
</event>
<event>
 4   1200 +8.5212000e+10 9.63068400e-03 7.81665300e-03            nan
       50 -1    0    0    0    0 +2.0003596280e-02 +8.4005744783e-03 +1.1219982880e+01 1.1220004968e+01 4.9935713700e-03 0.0000e+00 0.0000e+00
       11 -1    0    0    0    0 +1.7690550975e-18 +7.4292036766e-19 +9.9225997316e-16 5.1100000000e-04 5.1099893000e-04 0.0000e+00 1.0000e+00
       50  1    1    2    0    0 +2.4309818556e-02 +1.4056977440e-03 +1.1153224744e+01 1.1153252443e+01 4.9935713700e-03 0.0000e+00 0.0000e+00
       11  1    1    2    0    0 -4.3062222767e-03 +6.9948767342e-03 +6.6758136368e-02 6.7263524604e-02 5.1099893000e-04 0.0000e+00 1.0000e+00
<vert_displacement>
472.38646846629416
</vert_displacement>
</event>
<event>
 4   1200 +8.5212000e+10 6.63935300e-03 7.81665300e-03            nan
       50 -1    0    0    0    0 -4.4953885455e-02 +2.6243665983e-02 +1.7801851263e+01 1.7801928067e+01 4.9935713700e-03 0.0000e+00 0.0000e+00
       11 -1    0    0    0    0 -4.3455238502e-18 +2.5368769638e-18 +1.7208383315e-15 5.1100000000e-04 5.1099893000e-04 0.0000e+00 1.0000e+00
       50  1    1    2    0    0 -4.9278078354e-02 +2.6029777956e-02 +1.7783087139e+01 1.7783175167e+01 4.9935713700e-03 0.0000e+00 0.0000e+00
       11  1    1    2    0    0 +4.3241928998e-03 +2.1388802649e-04 +1.8764123289e-02 1.9263899787e-02 5.1099893000e-04 0.0000e+00 1.0000e+00
<vert_displacement>
385.21099856655417
</vert_displacement>
</event>
<event>
 4   1200 +8.5212000e+10 1.03513800e-02 7.81665300e-03            nan
       50 -1    0    0    0    0 -6.2521137723e-03 +5.4855990068e-03 +1.3431223952e+01 1.3431227456e+01 4.9935713700e-03 0.0000e+00 0.0000e+00
       11 -1    0    0    0    0 +1.8733953559e-19 -1.6437154022e-19 -4.0245576926e-16 5.1100000000e-04 5.1099893000e-04 0.0000e+00 1.0000e+00
       50  1    1    2    0    0 +2.9820335523e-04 -8.5624322309e-04 +1.3350292395e+01 1.3350293359e+01 4.9935713700e-03 0.0000e+00 0.0000e+00
       11  1    1    2    0    0 -6.5503171275e-03 +6.3418422299e-03 +8.0931557914e-02 8.1445096866e-02 5.1099893000e-04 0.0000e+00 1.0000e+00
<vert_displacement>
441.60073522361864
</vert_displacement>
</event>
<event>
 4   1200 +8.5212000e+10 1.74956200e-02 7.81665300e-03            nan
       50 -1    0    0    0    0 -2.8545404963e-02 -2.8305046827e-02 +1.7678938205e+01 1.7678984615e+01 4.9935713700e-03 0.0000e+00 0.0000e+00
       11 -1    0    0    0    0 -7.1704948652e-19 -7.1101178349e-19 +4.4408806177e-16 5.1100000000e-04 5.1099893000e-04 0.0000e+00 1.0000e+00
       50  1    1    2    0    0 -4.2444989849e-02 -1.9185043063e-02 +1.7399386814e+01 1.7399449878e+01 4.9935713700e-03 0.0000e+00 0.0000e+00
       11  1    1    2    0    0 +1.3899584886e-02 -9.1200037635e-03 +2.7955139187e-01 2.8004573688e-01 5.1099893000e-04 0.0000e+00 1.0000e+00
<vert_displacement>
86.699419345336437
</vert_displacement>
</event>
<event>
 4   1200 +8.5212000e+10 1.08275000e-02 7.81665300e-03            nan
       50 -1    0    0    0    0 +1.7741678037e-02 -1.2258437289e-02 +1.8745502205e+01 1.8745515274e+01 4.9935713700e-03 0.0000e+00 0.0000e+00
       11 -1    0    0    0    0 +4.8598100330e-19 -3.3578377647e-19 +5.1347780912e-16 5.1100000000e-04 5.1099893000e-04 0.0000e+00 1.0000e+00
       50  1    1    2    0    0 +1.0708947504e-02 -1.8835391060e-02 +1.8654749922e+01 1.8654763173e+01 4.9935713700e-03 0.0000e+00 0.0000e+00
       11  1    1    2    0    0 +7.0327305334e-03 +6.5769537710e-03 +9.0752282519e-02 9.1263100550e-02 5.1099893000e-04 0.0000e+00 1.0000e+00
<vert_displacement>
271.29012416193427
</vert_displacement>
</event>
<event>
 4   1200 +8.5212000e+10 3.33570300e-02 7.81665300e-03            nan
       50 -1    0    0    0    0 +3.4341212791e-02 +1.1746994542e-02 +1.5416511946e+01 1.5416555478e+01 4.9935713700e-03 0.0000e+00 0.0000e+00
       11 -1    0    0    0    0 +6.1208781553e-18 +2.0937502330e-18 +2.7477943710e-15 5.1100000000e-04 5.1099893000e-04 0.0000e+00 1.0000e+00
       50  1    1    2    0    0 +1.5137389637e-02 +3.9345370855e-02 +1.4266184517e+01 1.4266247678e+01 4.9935713700e-03 0.0000e+00 0.0000e+00
       11  1    1    2    0    0 +1.9203823153e-02 -2.7598376313e-02 +1.1503274281e+00 1.1508187999e+00 5.1099893000e-04 0.0000e+00 1.0000e+00
<vert_displacement>
234.84597618039592
</vert_displacement>
</event>
<event>
 4   1200 +8.5212000e+10 1.85610600e-02 7.81665300e-03            nan
       50 -1    0    0    0    0 +5.2968949833e-03 +7.0174808556e-04 +3.3933961886e+00 3.3934040694e+00 4.9935713700e-03 0.0000e+00 0.0000e+00
       11 -1    0    0    0    0 +2.1662396433e-19 +2.8698974161e-20 +1.3877770604e-16 5.1100000000e-04 5.1099893000e-04 0.0000e+00 1.0000e+00
       50  1    1    2    0    0 -1.0544318958e-02 +9.8810333585e-03 +3.0445522884e+00 3.0445906770e+00 4.9935713700e-03 0.0000e+00 0.0000e+00
       11  1    1    2    0    0 +1.5841213941e-02 -9.1792852730e-03 +3.4884390014e-01 3.4932439240e-01 5.1099893000e-04 0.0000e+00 1.0000e+00
<vert_displacement>
78.006580315345616
</vert_displacement>
</event>
<event>
 4   1200 +8.5212000e+10 8.89108100e-03 7.81665300e-03            nan
       50 -1    0    0    0    0 +2.7050999790e-02 +4.0013874881e-02 +1.5792234794e+01 1.5792309444e+01 4.9935713700e-03 0.0000e+00 0.0000e+00
       11 -1    0    0    0    0 -2.5673300005e-18 -3.7975979527e-18 -1.4987940733e-15 5.1100000000e-04 5.1099893000e-04 0.0000e+00 1.0000e+00
       50  1    1    2    0    0 +2.0040651853e-02 +3.7381656202e-02 +1.5739121837e+01 1.5739179780e+01 4.9935713700e-03 0.0000e+00 0.0000e+00
       11  1    1    2    0    0 +7.0103479366e-03 +2.6322186795e-03 +5.3112957069e-02 5.3640664443e-02 5.1099893000e-04 0.0000e+00 1.0000e+00
<vert_displacement>
128.80531591333408
</vert_displacement>
</event>
<event>
 4   1200 +8.5212000e+10 1.84718400e-02 7.81665300e-03            nan
       50 -1    0    0    0    0 +7.6719423172e-04 +2.9128049273e-03 +1.4893263868e+00 1.4893378043e+00 4.9935713700e-03 0.0000e+00 0.0000e+00
       11 -1    0    0    0    0 +1.7872067994e-21 +6.7854847652e-21 +3.4694398562e-18 5.1100000000e-04 5.1099893000e-04 0.0000e+00 -1.0000e+00
       50  1    1    2    0    0 +1.6975411232e-02 -4.7454291950e-03 +1.0451204381e+00 1.0452809907e+00 4.9935713700e-03 0.0000e+00 0.0000e+00
       11  1    1    2    0    0 -1.6208217000e-02 +7.6582341224e-03 +4.4420594870e-01 4.4456781353e-01 5.1099893000e-04 0.0000e+00 -1.0000e+00
<vert_displacement>
374.99847217682066
</vert_displacement>
</event>
<event>
 4   1200 +8.5212000e+10 1.47055800e-02 7.81665300e-03            nan
       50 -1    0    0    0    0 -6.4006816132e-02 -1.9336414144e-02 +2.1297255488e+01 2.1297361035e+01 4.9935713700e-03 0.0000e+00 0.0000e+00
       11 -1    0    0    0    0 -6.5481759254e-18 -1.9781993424e-18 +2.1788019479e-15 5.1100000000e-04 5.1099893000e-04 0.0000e+00 1.0000e+00
       50  1    1    2    0    0 -6.3190847351e-02 -3.2994478549e-02 +2.1108363086e+01 2.1108484049e+01 4.9935713700e-03 0.0000e+00 0.0000e+00
       11  1    1    2    0    0 -8.1596878067e-04 +1.3658064405e-02 +1.8889240196e-01 1.8938798580e-01 5.1099893000e-04 0.0000e+00 1.0000e+00
<vert_displacement>
196.09811688567569
</vert_displacement>
</event>
<event>
 4   1200 +8.5212000e+10 8.09014000e-03 7.81665300e-03            nan
       50 -1    0    0    0    0 +1.6288540742e-02 -6.2607161663e-04 +9.8331730882e+00 9.8331878669e+00 4.9935713700e-03 0.0000e+00 0.0000e+00
       11 -1    0    0    0    0 -1.1494183998e-20 +4.4179417123e-22 -6.9388843699e-18 5.1100000000e-04 5.1099893000e-04 0.0000e+00 1.0000e+00
       50  1    1    2    0    0 +9.8575439225e-03 -6.4642608863e-04 +9.7933776133e+00 9.7933838687e+00 4.9935713700e-03 0.0000e+00 0.0000e+00
       11  1    1    2    0    0 +6.4309968198e-03 +2.0354472002e-05 +3.9795474899e-02 4.0314998161e-02 5.1099893000e-04 0.0000e+00 1.0000e+00
<vert_displacement>
188.11826923415171
</vert_displacement>
</event>
<event>
 4   1200 +8.5212000e+10 3.98792100e-02 7.81665300e-03            nan
       50 -1    0    0    0    0 -6.0291410897e-02 -3.3851236629e-02 +2.2832139424e+01 2.2832244667e+01 4.9935713700e-03 0.0000e+00 0.0000e+00
       11 -1    0    0    0    0 -8.0254834860e-18 -4.5059907623e-18 +3.0392215934e-15 5.1100000000e-04 5.1099893000e-04 0.0000e+00 1.0000e+00
       50  1    1    2    0    0 -1.6370555797e-02 -3.2021310840e-02 +2.1180943487e+01 2.1180974607e+01 4.9935713700e-03 0.0000e+00 0.0000e+00
       11  1    1    2    0    0 -4.3920855099e-02 -1.8299257885e-03 +1.6511959364e+00 1.6517810604e+00 5.1099893000e-04 0.0000e+00 1.0000e+00
<vert_displacement>
253.36155245857756
</vert_displacement>
</event>
<event>
 4   1200 +8.5212000e+10 1.49331200e-02 7.81665300e-03            nan
       50 -1    0    0    0    0 +2.5468040673e-02 +2.1751008504e-02 +9.4282089613e+00 9.4282697714e+00 4.9935713700e-03 0.0000e+00 0.0000e+00
       11 -1    0    0    0    0 +2.5491344997e-18 +2.1770911587e-18 +9.4368361672e-16 5.1100000000e-04 5.1099893000e-04 0.0000e+00 1.0000e+00
       50  1    1    2    0    0 +1.0886104221e-02 +2.0435064102e-02 +9.2302730384e+00 9.2303034294e+00 4.9935713700e-03 0.0000e+00 0.0000e+00
       11  1    1    2    0    0 +1.4581936452e-02 +1.3159444018e-03 +1.9793592291e-01 1.9847734198e-01 5.1099893000e-04 0.0000e+00 1.0000e+00
<vert_displacement>
110.85722505346452
</vert_displacement>
</event>
<event>
 4   1200 +8.5212000e+10 1.99416800e-02 7.81665300e-03            nan
       50 -1    0    0    0    0 +3.8027330080e-03 -1.5601584328e-03 +1.6754311243e+00 1.6754436078e+00 4.9935713700e-03 0.0000e+00 0.0000e+00
       11 -1    0    0    0    0 -1.2599351223e-19 +5.1691728072e-20 -5.5510984180e-17 5.1100000000e-04 5.1099893000e-04 0.0000e+00 1.0000e+00
       50  1    1    2    0    0 -1.2589450712e-02 -1.3950011433e-02 +5.6781315015e-01 5.6814593753e-01 4.9935713700e-03 0.0000e+00 0.0000e+00
       11  1    1    2    0    0 +1.6392183720e-02 +1.2389853001e-02 +1.1076179742e+00 1.1078086703e+00 5.1099893000e-04 0.0000e+00 1.0000e+00
<vert_displacement>
82.411693681259237
</vert_displacement>
</event>
<event>
 4   1200 +8.5212000e+10 2.72209200e-02 7.81665300e-03            nan
       50 -1    0    0    0    0 +2.0086085415e-02 +1.8458670281e-02 +9.2702037542e+00 9.2702452370e+00 4.9935713700e-03 0.0000e+00 0.0000e+00
       11 -1    0    0    0    0 -2.6912089790e-18 -2.4731618019e-18 -1.2420566310e-15 5.1100000000e-04 5.1099893000e-04 0.0000e+00 1.0000e+00
       50  1    1    2    0    0 +1.2459324320e-02 +4.3021942513e-02 +8.5064126177e+00 8.5065320008e+00 4.9935713700e-03 0.0000e+00 0.0000e+00
       11  1    1    2    0    0 +7.6267610953e-03 -2.4563272232e-02 +7.6379113653e-01 7.6422423619e-01 5.1099893000e-04 0.0000e+00 1.0000e+00
<vert_displacement>
75.253901870780680
</vert_displacement>
</event>
<event>
 4   1200 +8.5212000e+10 2.56564100e-02 7.81665300e-03            nan
       50 -1    0    0    0    0 -5.5186622475e-02 -3.6708039801e-02 +1.7819065870e+01 1.7819189838e+01 4.9935713700e-03 0.0000e+00 0.0000e+00
       11 -1    0    0    0    0 -3.5673376123e-18 -2.3728571379e-18 +1.1518484199e-15 5.1100000000e-04 5.1099893000e-04 0.0000e+00 1.0000e+00
       50  1    1    2    0    0 -7.4342662057e-02 -2.1741389371e-02 +1.7176103816e+01 1.7176279189e+01 4.9935713700e-03 0.0000e+00 0.0000e+00
       11  1    1    2    0    0 +1.9156039582e-02 -1.4966650431e-02 +6.4296205406e-01 6.4342164912e-01 5.1099893000e-04 0.0000e+00 1.0000e+00
<vert_displacement>
221.37395695272303
</vert_displacement>
</event>
<event>
 4   1200 +8.5212000e+10 1.21492400e-02 7.81665300e-03            nan
       50 -1    0    0    0    0 -6.0119785021e-02 -6.5759875095e-02 +2.8295480704e+01 2.8295621428e+01 4.9935713700e-03 0.0000e+00 0.0000e+00
       11 -1    0    0    0    0 -8.8458523666e-19 -9.6757190088e-19 +4.1633157016e-16 5.1100000000e-04 5.1099893000e-04 0.0000e+00 1.0000e+00
       50  1    1    2    0    0 -5.3293847743e-02 -7.4396325422e-02 +2.8174930741e+01 2.8175079809e+01 4.9935713700e-03 0.0000e+00 0.0000e+00
       11  1    1    2    0    0 -6.8259372775e-03 +8.6364503276e-03 +1.2054996313e-01 1.2105261841e-01 5.1099893000e-04 0.0000e+00 1.0000e+00
<vert_displacement>
274.55790859314902
</vert_displacement>
</event>
<event>
 4   1200 +8.5212000e+10 1.45350400e-02 7.81665300e-03            nan
       50 -1    0    0    0    0 -1.9696246179e-02 -2.0917451171e-02 +1.6040860872e+01 1.6040887380e+01 4.9935713700e-03 0.0000e+00 0.0000e+00
       11 -1    0    0    0    0 -1.6188214234e-18 -1.7191914525e-18 +1.3183877270e-15 5.1100000000e-04 5.1099893000e-04 0.0000e+00 1.0000e+00
       50  1    1    2    0    0 -9.2769167741e-03 -2.9756442852e-02 +1.5856411185e+01 1.5856442606e+01 4.9935713700e-03 0.0000e+00 0.0000e+00
       11  1    1    2    0    0 -1.0419329405e-02 +8.8389916812e-03 +1.8444968754e-01 1.8495577458e-01 5.1099893000e-04 0.0000e+00 1.0000e+00
<vert_displacement>
111.81581074911414
</vert_displacement>
</event>
<event>
 4   1200 +8.5212000e+10 1.96416500e-02 7.81665300e-03            nan
       50 -1    0    0    0    0 +3.3719750188e-02 +1.4722957439e-02 +1.1232586771e+01 1.1232648142e+01 4.9935713700e-03 0.0000e+00 0.0000e+00
       11 -1    0    0    0    0 -1.7497329473e-18 -7.6398085894e-19 -5.8286396094e-16 5.1100000000e-04 5.1099893000e-04 0.0000e+00 1.0000e+00
       50  1    1    2    0    0 +3.3893213636e-02 +3.3198365076e-02 +1.0867567863e+01 1.0867672569e+01 4.9935713700e-03 0.0000e+00 0.0000e+00
       11  1    1    2    0    0 -1.7346344767e-04 -1.8475407638e-02 +3.6501890798e-01 3.6548657305e-01 5.1099893000e-04 0.0000e+00 1.0000e+00
<vert_displacement>
384.39009176915437
</vert_displacement>
</event>
<event>
 4   1200 +8.5212000e+10 7.55295100e-03 7.81665300e-03            nan
       50 -1    0    0    0    0 +1.2864661487e-02 -2.4215984986e-03 +1.4693738367e+01 1.4693745047e+01 4.9935713700e-03 0.0000e+00 0.0000e+00
       11 -1    0    0    0    0 -3.3413258036e-19 +6.2895938284e-20 -3.8163901326e-16 5.1100000000e-04 5.1099893000e-04 0.0000e+00 1.0000e+00
       50  1    1    2    0    0 +1.3826587058e-02 -7.9960336678e-03 +1.4662247837e+01 1.4662257387e+01 4.9935713700e-03 0.0000e+00 0.0000e+00
       11  1    1    2    0    0 -9.6192557139e-04 +5.5744351692e-03 +3.1490530781e-02 3.1998660550e-02 5.1099893000e-04 0.0000e+00 1.0000e+00
<vert_displacement>
272.13420342620390
</vert_displacement>
</event>
<event>
 4   1200 +8.5212000e+10 9.85449100e-03 7.81665300e-03            nan
       50 -1    0    0    0    0 +1.2249129575e-02 +4.4498772390e-02 +2.8211243448e+01 2.8211281644e+01 4.9935713700e-03 0.0000e+00 0.0000e+00
       11 -1    0    0    0    0 -1.7474335092e-19 -6.3480956355e-19 -4.0245530783e-16 5.1100000000e-04 5.1099893000e-04 0.0000e+00 1.0000e+00
       50  1    1    2    0    0 +6.1631877377e-03 +3.8428098769e-02 +2.8140454885e+01 2.8140482241e+01 4.9935713700e-03 0.0000e+00 0.0000e+00
       11  1    1    2    0    0 +6.0859418374e-03 +6.0706736208e-03 +7.0788563250e-02 7.1310402980e-02 5.1099893000e-04 0.0000e+00 1.0000e+00
<vert_displacement>
242.66507914033744
</vert_displacement>
</event>
<event>
 4   1200 +8.5212000e+10 6.21293900e-03 7.81665300e-03            nan
       50 -1    0    0    0    0 +1.4132770370e-02 +1.6668553207e-02 +7.3398059262e+00 7.3398401580e+00 4.9935713700e-03 0.0000e+00 0.0000e+00
       11 -1    0    0    0    0 -8.6844917039e-19 -1.0242713088e-18 -4.5102610461e-16 5.1100000000e-04 5.1099893000e-04 0.0000e+00 1.0000e+00
       50  1    1    2    0    0 +1.1759071166e-02 +1.3782946655e-02 +7.3264208264e+00 7.3264449296e+00 4.9935713700e-03 0.0000e+00 0.0000e+00
       11  1    1    2    0    0 +2.3736992036e-03 +2.8856065522e-03 +1.3385099741e-02 1.3906228391e-02 5.1099893000e-04 0.0000e+00 1.0000e+00
<vert_displacement>
139.67830759153208
</vert_displacement>
</event>
<event>
 4   1200 +8.5212000e+10 9.60891600e-03 7.81665300e-03            nan
       50 -1    0    0    0    0 -3.9450798401e-02 +3.4354381020e-03 +2.3082548014e+01 2.3082582523e+01 4.9935713700e-03 0.0000e+00 0.0000e+00
       11 -1    0    0    0    0 +8.7759345770e-19 -7.6422230344e-20 -5.1347739325e-16 5.1100000000e-04 5.1099893000e-04 0.0000e+00 1.0000e+00
       50  1    1    2    0    0 -3.6182128081e-02 +1.1004344853e-02 +2.3016416501e+01 2.3016448113e+01 4.9935713700e-03 0.0000e+00 0.0000e+00
       11  1    1    2    0    0 -3.2686703200e-03 -7.5689067508e-03 +6.6131513445e-02 6.6645410536e-02 5.1099893000e-04 0.0000e+00 1.0000e+00
<vert_displacement>
420.63968690772890
</vert_displacement>
</event>
<event>
 4   1200 +8.5212000e+10 2.81384500e-02 7.81665300e-03            nan
       50 -1    0    0    0    0 +7.7318948432e-03 -1.4480449846e-02 +1.0047285280e+01 1.0047299931e+01 4.9935713700e-03 0.0000e+00 0.0000e+00
       11 -1    0    0    0    0 -2.8301062617e-19 +5.3002805407e-19 -3.6776088607e-16 5.1100000000e-04 5.1099893000e-04 0.0000e+00 1.0000e+00
       50  1    1    2    0    0 -1.4849656975e-02 +3.5761502942e-03 +9.2303729176e+00 9.2303869060e+00 4.9935713700e-03 0.0000e+00 0.0000e+00
       11  1    1    2    0    0 +2.2581551818e-02 -1.8056600140e-02 +8.1691236278e-01 8.1742402514e-01 5.1099893000e-04 0.0000e+00 1.0000e+00
<vert_displacement>
81.677180762533283
</vert_displacement>
</event>
<event>
 4   1200 +8.5212000e+10 1.12305400e-02 7.81665300e-03            nan
       50 -1    0    0    0    0 -3.0820214758e-03 -1.0365751383e-02 +5.4887558915e+00 5.4887688164e+00 4.9935713700e-03 0.0000e+00 0.0000e+00
       11 -1    0    0    0    0 +3.5456228769e-19 +1.1924980253e-18 -6.3143811967e-16 5.1100000000e-04 5.1099893000e-04 0.0000e+00 1.0000e+00
       50  1    1    2    0    0 +5.5917081534e-03 -1.5365146328e-02 +5.3878683821e+00 5.3878955070e+00 4.9935713700e-03 0.0000e+00 0.0000e+00
       11  1    1    2    0    0 -8.6737296292e-03 +4.9993949454e-03 +1.0088750932e-01 1.0138430940e-01 5.1099893000e-04 0.0000e+00 1.0000e+00
<vert_displacement>
190.97262434691336
</vert_displacement>
</event>
<event>
 4   1200 +8.5212000e+10 5.39602200e-02 7.81665300e-03            nan
       50 -1    0    0    0    0 -1.8752745555e-02 -4.1709101176e-02 +2.0963575096e+01 2.0963625570e+01 4.9935713700e-03 0.0000e+00 0.0000e+00
       11 -1    0    0    0    0 +1.6635027390e-18 +3.6998957749e-18 -1.8596191416e-15 5.1100000000e-04 5.1099893000e-04 0.0000e+00 1.0000e+00
       50  1    1    2    0    0 -7.1469485259e-03 -8.8049418378e-02 +1.7597813606e+01 1.7598036038e+01 4.9935713700e-03 0.0000e+00 0.0000e+00
       11  1    1    2    0    0 -1.1605797029e-02 +4.6340317202e-02 +3.3657614902e+00 3.3661005317e+00 5.1099893000e-04 0.0000e+00 1.0000e+00
<vert_displacement>
428.30470784854617
</vert_displacement>
</event>
<event>
 4   1200 +8.5212000e+10 5.12768400e-02 7.81665300e-03            nan
       50 -1    0    0    0    0 -3.9711802853e-03 +4.9384107674e-02 +2.9116160005e+01 2.9116202584e+01 4.9935713700e-03 0.0000e+00 0.0000e+00
       11 -1    0    0    0    0 +5.6026930735e-19 -6.9672988413e-18 -4.1078192443e-15 5.1100000000e-04 5.1099893000e-04 0.0000e+00 1.0000e+00
       50  1    1    2    0    0 -5.1172744610e-03 -6.4125771761e-03 +2.6294125306e+01 2.6294127060e+01 4.9935713700e-03 0.0000e+00 0.0000e+00
       11  1    1    2    0    0 +1.1460941756e-03 +5.5796684850e-02 +2.8220346987e+00 2.8225865239e+00 5.1099893000e-04 0.0000e+00 1.0000e+00
<vert_displacement>
149.28276096597017
</vert_displacement>
</event>
<event>
 4   1200 +8.5212000e+10 6.61587500e-03 7.81665300e-03            nan
       50 -1    0    0    0    0 +2.1524419847e-03 -2.6953145736e-03 +3.3368948976e+00 3.3369004167e+00 4.9935713700e-03 0.0000e+00 0.0000e+00
       11 -1    0    0    0    0 +1.7903540921e-19 -2.2419036195e-19 +2.7755560787e-16 5.1100000000e-04 5.1099893000e-04 0.0000e+00 1.0000e+00
       50  1    1    2    0    0 -2.0995114373e-03 -1.7548933339e-03 +3.3183632297e+00 3.3183681151e+00 4.9935713700e-03 0.0000e+00 0.0000e+00
       11  1    1    2    0    0 +4.2519534220e-03 -9.4042123966e-04 +1.8531667885e-02 1.9043301566e-02 5.1099893000e-04 0.0000e+00 1.0000e+00
<vert_displacement>
261.25865231411143
</vert_displacement>
</event>
<event>
 4   1200 +8.5212000e+10 1.53131900e-02 7.81665300e-03            nan
       50 -1    0    0    0    0 -1.4046668701e-03 -4.0166726478e-03 +2.8048038020e+00 2.8048114750e+00 4.9935713700e-03 0.0000e+00 0.0000e+00
       11 -1    0    0    0    0 -1.5637708496e-20 -4.4716336183e-20 +3.1224986633e-17 5.1100000000e-04 5.1099893000e-04 0.0000e+00 1.0000e+00
       50  1    1    2    0    0 -1.5730903874e-02 -2.6460923539e-03 +2.5818373169e+00 2.5818914249e+00 4.9935713700e-03 0.0000e+00 0.0000e+00
       11  1    1    2    0    0 +1.4326237004e-02 -1.3705802938e-03 +2.2296648508e-01 2.2343105009e-01 5.1099893000e-04 0.0000e+00 1.0000e+00
<vert_displacement>
66.615598569900087
</vert_displacement>
</event>
<event>
 4   1200 +8.5212000e+10 2.16277900e-02 7.81665300e-03            nan
       50 -1    0    0    0    0 +3.0696787375e-02 -7.8778975675e-04 +1.2360797869e+01 1.2360837019e+01 4.9935713700e-03 0.0000e+00 0.0000e+00
       11 -1    0    0    0    0 +1.8955184396e-18 -4.8645807530e-20 +7.6327597422e-16 5.1100000000e-04 5.1099893000e-04 0.0000e+00 1.0000e+00
       50  1    1    2    0    0 +9.5653468761e-03 -7.2581281871e-03 +1.1911144627e+01 1.1911151726e+01 4.9935713700e-03 0.0000e+00 0.0000e+00
       11  1    1    2    0    0 +2.1131440498e-02 +6.4703384304e-03 +4.4965324178e-01 4.5019629276e-01 5.1099893000e-04 0.0000e+00 1.0000e+00
<vert_displacement>
70.076190099023052
</vert_displacement>
</event>
<event>
 4   1200 +8.5212000e+10 7.72907800e-03 7.81665300e-03            nan
       50 -1    0    0    0    0 -9.9054445423e-02 -1.0111280021e-02 +3.2062111009e+01 3.2062266004e+01 4.9935713700e-03 0.0000e+00 0.0000e+00
       11 -1    0    0    0    0 +1.3977117177e-17 +1.4267562152e-18 -4.5241370096e-15 5.1100000000e-04 5.1099893000e-04 0.0000e+00 1.0000e+00
       50  1    1    2    0    0 -9.3544230523e-02 -7.7362728011e-03 +3.2028038088e+01 3.2028176019e+01 4.9935713700e-03 0.0000e+00 0.0000e+00
       11  1    1    2    0    0 -5.5102148997e-03 -2.3750072195e-03 +3.4072920694e-02 3.4600985131e-02 5.1099893000e-04 0.0000e+00 1.0000e+00
<vert_displacement>
191.26170713957060
</vert_displacement>
</event>
<event>
 4   1200 +8.5212000e+10 9.99822000e-03 7.81665300e-03            nan
       50 -1    0    0    0    0 +9.0088008436e-03 +1.7927628464e-02 +7.8079009749e+00 7.8079283506e+00 4.9935713700e-03 0.0000e+00 0.0000e+00
       11 -1    0    0    0    0 -3.2825047215e-19 -6.5322262196e-19 -2.8449371076e-16 5.1100000000e-04 5.1099893000e-04 0.0000e+00 1.0000e+00
       50  1    1    2    0    0 +6.7871744109e-03 +9.3630747423e-03 +7.7337987093e+00 7.7338089674e+00 4.9935713700e-03 0.0000e+00 0.0000e+00
       11  1    1    2    0    0 +2.2216264327e-03 +8.5645537214e-03 +7.4102265654e-02 7.4630383219e-02 5.1099893000e-04 0.0000e+00 1.0000e+00
<vert_displacement>
108.50673230994508
</vert_displacement>
</event>
<event>
 4   1200 +8.5212000e+10 1.22581800e-02 7.81665300e-03            nan
       50 -1    0    0    0    0 +4.7522044831e-03 +1.2418247851e-02 +1.9753216861e+01 1.9753221967e+01 4.9935713700e-03 0.0000e+00 0.0000e+00
       11 -1    0    0    0    0 -1.0016100814e-19 -2.6173625915e-19 -4.1633353991e-16 5.1100000000e-04 5.1099893000e-04 0.0000e+00 -1.0000e+00
       50  1    1    2    0    0 +1.4455673425e-02 +1.7871744011e-02 +1.9629806656e+01 1.9629820749e+01 4.9935713700e-03 0.0000e+00 0.0000e+00
       11  1    1    2    0    0 -9.7034689417e-03 -5.4534961600e-03 +1.2341020486e-01 1.2391221777e-01 5.1099893000e-04 0.0000e+00 -1.0000e+00
<vert_displacement>
65.281696506125058
</vert_displacement>
</event>
<event>
 4   1200 +8.5212000e+10 1.06268600e-02 7.81665300e-03            nan
       50 -1    0    0    0    0 +1.4611378461e-01 +8.6499707709e-04 +4.5887522825e+01 4.5887755730e+01 4.9935713700e-03 0.0000e+00 0.0000e+00
       11 -1    0    0    0    0 -4.1095812005e-18 -2.4328818367e-20 -1.2906277231e-15 5.1100000000e-04 5.1099893000e-04 0.0000e+00 1.0000e+00
       50  1    1    2    0    0 +1.4392873676e-01 +1.0047312332e-02 +4.5801265833e+01 4.5801493352e+01 4.9935713700e-03 0.0000e+00 0.0000e+00
       11  1    1    2    0    0 +2.1850478414e-03 -9.1823152548e-03 +8.6256992257e-02 8.6773378295e-02 5.1099893000e-04 0.0000e+00 1.0000e+00
<vert_displacement>
147.88184034518295
</vert_displacement>
</event>
<event>
 4   1200 +8.5212000e+10 3.94959600e-02 7.81665300e-03            nan
       50 -1    0    0    0    0 +1.6600156655e-02 -1.8281538764e-02 +7.7983630127e+00 7.7984037080e+00 4.9935713700e-03 0.0000e+00 0.0000e+00
       11 -1    0    0    0    0 +1.0191682822e-18 -1.1223969053e-18 +4.7878127903e-16 5.1100000000e-04 5.1099893000e-04 0.0000e+00 1.0000e+00
       50  1    1    2    0    0 +2.5975032703e-02 +2.3191273528e-02 +5.7639971318e+00 5.7641044759e+00 4.9935713700e-03 0.0000e+00 0.0000e+00
       11  1    1    2    0    0 -9.3748760479e-03 -4.1472812292e-02 +2.0343658808e+00 2.0348102321e+00 5.1099893000e-04 0.0000e+00 1.0000e+00
<vert_displacement>
213.38911046816511
</vert_displacement>
</event>
<event>
 4   1200 +8.5212000e+10 1.67823600e-02 7.81665300e-03            nan
       50 -1    0    0    0    0 -1.0760368816e-01 -7.4092141992e-02 +4.1559944215e+01 4.1560149859e+01 4.9935713700e-03 0.0000e+00 0.0000e+00
       11 -1    0    0    0    0 +9.8810476155e-18 +6.8037443277e-18 -3.8163727908e-15 5.1100000000e-04 5.1099893000e-04 0.0000e+00 1.0000e+00
       50  1    1    2    0    0 -1.2092931537e-01 -8.1469110587e-02 +4.1307168590e+01 4.1307426245e+01 4.9935713700e-03 0.0000e+00 0.0000e+00
       11  1    1    2    0    0 +1.3325627212e-02 +7.3769685946e-03 +2.5277562486e-01 2.5323461385e-01 5.1099893000e-04 0.0000e+00 1.0000e+00
<vert_displacement>
256.96902282581732
</vert_displacement>
</event>
<event>
 4   1200 +8.5212000e+10 1.71393400e-02 7.81665300e-03            nan
       50 -1    0    0    0    0 -6.0768203762e-03 +1.1848171029e-02 +6.9330205291e+00 6.9330351146e+00 4.9935713700e-03 0.0000e+00 0.0000e+00
       11 -1    0    0    0    0 -1.5813088708e-19 +3.0831284769e-19 +1.8041090876e-16 5.1100000000e-04 5.1099893000e-04 0.0000e+00 1.0000e+00
       50  1    1    2    0    0 -8.5070284491e-03 +2.7556894935e-02 +6.6590776847e+00 6.6591420092e+00 4.9935713700e-03 0.0000e+00 0.0000e+00
       11  1    1    2    0    0 +2.4302080729e-03 -1.5708723906e-02 +2.7394284436e-01 2.7440410532e-01 5.1099893000e-04 0.0000e+00 1.0000e+00
<vert_displacement>
235.37500401290302
</vert_displacement>
</event>
<event>
 4   1200 +8.5212000e+10 3.21853100e-02 7.81665300e-03            nan
       50 -1    0    0    0    0 -4.4988068765e-02 +7.8946377882e-02 +4.4034328707e+01 4.4034422741e+01 4.9935713700e-03 0.0000e+00 0.0000e+00
       11 -1    0    0    0    0 +5.1892712673e-18 -9.1062848804e-18 -5.0792595238e-15 5.1100000000e-04 5.1099893000e-04 0.0000e+00 1.0000e+00
       50  1    1    2    0    0 -1.7012075147e-02 +6.0246014598e-02 +4.3021887433e+01 4.3021933269e+01 4.9935713700e-03 0.0000e+00 0.0000e+00
       11  1    1    2    0    0 -2.7975993618e-02 +1.8700363284e-02 +1.0124412746e+00 1.0130004716e+00 5.1099893000e-04 0.0000e+00 1.0000e+00
<vert_displacement>
62.732517167550995
</vert_displacement>
</event>
<event>
 4   1200 +8.5212000e+10 7.04425300e-03 7.81665300e-03            nan
       50 -1    0    0    0    0 +3.6737489206e-02 +7.7649353413e-03 +2.4240174943e+01 2.4240204540e+01 4.9935713700e-03 0.0000e+00 0.0000e+00
       11 -1    0    0    0    0 +3.7858721925e-18 +8.0019221293e-19 +2.4979988084e-15 5.1100000000e-04 5.1099893000e-04 0.0000e+00 1.0000e+00
       50  1    1    2    0    0 +4.0905721729e-02 +5.1105475302e-03 +2.4215990453e+01 2.4216026056e+01 4.9935713700e-03 0.0000e+00 0.0000e+00
       11  1    1    2    0    0 -4.1682325234e-03 +2.6543878110e-03 +2.4184490574e-02 2.4689484427e-02 5.1099893000e-04 0.0000e+00 1.0000e+00
<vert_displacement>
476.80107339759979
</vert_displacement>
</event>
<event>
 4   1200 +8.5212000e+10 2.43817300e-02 7.81665300e-03            nan
       50 -1    0    0    0    0 -3.1605170856e-02 +1.4005970985e-02 +1.6388206556e+01 1.6388243777e+01 4.9935713700e-03 0.0000e+00 0.0000e+00
       11 -1    0    0    0    0 -8.8320176805e-19 +3.9139476238e-19 +4.5796597877e-16 5.1100000000e-04 5.1099893000e-04 0.0000e+00 1.0000e+00
       50  1    1    2    0    0 -4.9309471369e-02 -1.1642906277e-03 +1.5810500240e+01 1.5810577964e+01 4.9935713700e-03 0.0000e+00 0.0000e+00
       11  1    1    2    0    0 +1.7704300514e-02 +1.5170261613e-02 +5.7770631566e-01 5.7817681324e-01 5.1099893000e-04 0.0000e+00 1.0000e+00
<vert_displacement>
401.73584194483334
</vert_displacement>
</event>
<event>
 4   1200 +8.5212000e+10 7.14198500e-03 7.81665300e-03            nan
       50 -1    0    0    0    0 -9.0617508077e-04 -1.9384938901e-02 +1.0288333351e+01 1.0288352865e+01 4.9935713700e-03 0.0000e+00 0.0000e+00
       11 -1    0    0    0    0 -5.4393445428e-20 -1.1635870800e-18 +6.1756045886e-16 5.1100000000e-04 5.1099893000e-04 0.0000e+00 1.0000e+00
       50  1    1    2    0    0 -3.0145510497e-03 -2.3986197410e-02 +1.0262748496e+01 1.0262778184e+01 4.9935713700e-03 0.0000e+00 0.0000e+00
       11  1    1    2    0    0 +2.1083759690e-03 +4.6012585088e-03 +2.5584855605e-02 2.6085681615e-02 5.1099893000e-04 0.0000e+00 1.0000e+00
<vert_displacement>
330.94742162323593
</vert_displacement>
</event>
<event>
 4   1200 +8.5212000e+10 4.42610200e-02 7.81665300e-03            nan
       50 -1    0    0    0    0 +2.3991399125e-02 +3.5541136478e-02 +2.4996838269e+01 2.4996875548e+01 4.9935713700e-03 0.0000e+00 0.0000e+00
       11 -1    0    0    0    0 -3.7294786957e-19 -5.5248929263e-19 -3.8857748687e-16 5.1100000000e-04 5.1099893000e-04 0.0000e+00 1.0000e+00
       50  1    1    2    0    0 -2.2825864922e-03 +6.9267280516e-02 +2.2933895252e+01 2.2934000513e+01 4.9935713700e-03 0.0000e+00 0.0000e+00
       11  1    1    2    0    0 +2.6273985617e-02 -3.3726144038e-02 +2.0629430172e+00 2.0633860348e+00 5.1099893000e-04 0.0000e+00 1.0000e+00
<vert_displacement>
4.3211363506231200
</vert_displacement>
</event>
<event>
 4   1200 +8.5212000e+10 1.06759900e-02 7.81665300e-03            nan
       50 -1    0    0    0    0 -2.2439917195e-02 -1.4014744758e-03 +7.0374749451e+00 7.0375126325e+00 4.9935713700e-03 0.0000e+00 0.0000e+00
       11 -1    0    0    0    0 -1.4160297999e-18 -8.8437475252e-20 +4.4408694345e-16 5.1100000000e-04 5.1099893000e-04 0.0000e+00 1.0000e+00
       50  1    1    2    0    0 -1.7977172308e-02 -9.8430352178e-03 +6.9492462138e+00 6.9492782316e+00 4.9935713700e-03 0.0000e+00 0.0000e+00
       11  1    1    2    0    0 -4.4627448869e-03 +8.4415607419e-03 +8.8228731231e-02 8.8745400863e-02 5.1099893000e-04 0.0000e+00 1.0000e+00
<vert_displacement>
397.18967725206210
</vert_displacement>
</event>
<event>
 4   1200 +8.5212000e+10 9.83920100e-03 7.81665300e-03            nan
       50 -1    0    0    0    0 +2.0324415759e-03 -7.8616766006e-03 +9.9386096658e+00 9.9386142375e+00 4.9935713700e-03 0.0000e+00 0.0000e+00
       11 -1    0    0    0    0 +1.6318505367e-19 -6.3121525027e-19 +7.9797253261e-16 5.1100000000e-04 5.1099893000e-04 0.0000e+00 1.0000e+00
       50  1    1    2    0    0 +1.0358331849e-02 -9.3262458180e-03 +9.8677701223e+00 9.8677812297e+00 4.9935713700e-03 0.0000e+00 0.0000e+00
       11  1    1    2    0    0 -8.3258902732e-03 +1.4645692174e-03 +7.0839543506e-02 7.1344007848e-02 5.1099893000e-04 0.0000e+00 1.0000e+00
<vert_displacement>
487.75599785422673
</vert_displacement>
</event>
<event>
 4   1200 +8.5212000e+10 1.20895200e-02 7.81665300e-03            nan
       50 -1    0    0    0    0 -1.8755684866e-02 +2.1870661475e-05 +1.0318860493e+01 1.0318878747e+01 4.9935713700e-03 0.0000e+00 0.0000e+00
       11 -1    0    0    0    0 -7.4411957179e-19 +8.6770423836e-22 +4.0939406407e-16 5.1100000000e-04 5.1099893000e-04 0.0000e+00 1.0000e+00
       50  1    1    2    0    0 -2.6016108730e-02 -8.0587053899e-03 +1.0198830790e+01 1.0198868378e+01 4.9935713700e-03 0.0000e+00 0.0000e+00
       11  1    1    2    0    0 +7.2604238644e-03 +8.0805760514e-03 +1.2002970351e-01 1.2052136868e-01 5.1099893000e-04 0.0000e+00 1.0000e+00
<vert_displacement>
308.71618125521883
</vert_displacement>
</event>
<event>
 4   1200 +8.5212000e+10 1.11236100e-02 7.81665300e-03            nan
       50 -1    0    0    0    0 +3.7270113602e-02 -7.7943938930e-02 +3.6037259079e+01 3.6037362989e+01 4.9935713700e-03 0.0000e+00 0.0000e+00
       11 -1    0    0    0    0 -1.5357189276e-18 +3.2116881527e-18 -1.4849190281e-15 5.1100000000e-04 5.1099893000e-04 0.0000e+00 1.0000e+00
       50  1    1    2    0    0 +3.9888326088e-02 -6.8173494627e-02 +3.5940342703e+01 3.5940429842e+01 4.9935713700e-03 0.0000e+00 0.0000e+00
       11  1    1    2    0    0 -2.6182124864e-03 -9.7704443029e-03 +9.6916375909e-02 9.7444146349e-02 5.1099893000e-04 0.0000e+00 1.0000e+00
<vert_displacement>
296.36396699806079
</vert_displacement>
</event>
<event>
 4   1200 +8.5212000e+10 2.37779800e-02 7.81665300e-03            nan
       50 -1    0    0    0    0 -3.6867272847e-03 -6.7090843094e-03 +1.9132662423e+01 1.9132664606e+01 4.9935713700e-03 0.0000e+00 0.0000e+00
       11 -1    0    0    0    0 -5.0808855609e-20 -9.2461652197e-20 +2.6367794724e-16 5.1100000000e-04 5.1099893000e-04 0.0000e+00 1.0000e+00
       50  1    1    2    0    0 +1.0217368344e-02 +1.2191105155e-02 +1.8588328606e+01 1.8588336083e+01 4.9935713700e-03 0.0000e+00 0.0000e+00
       11  1    1    2    0    0 -1.3904095629e-02 -1.8900189464e-02 +5.4433381720e-01 5.4483952381e-01 5.1099893000e-04 0.0000e+00 1.0000e+00
<vert_displacement>
115.12743113112883
</vert_displacement>
</event>
<event>
 4   1200 +8.5212000e+10 1.12987400e-02 7.81665300e-03            nan
       50 -1    0    0    0    0 +4.0036050958e-02 +3.4972098854e-02 +1.9731997843e+01 1.9732070083e+01 4.9935713700e-03 0.0000e+00 0.0000e+00
       11 -1    0    0    0    0 -2.0555199722e-18 -1.7955279291e-18 -1.0130748335e-15 5.1100000000e-04 5.1099893000e-04 0.0000e+00 1.0000e+00
       50  1    1    2    0    0 +3.8135939346e-02 +4.4785638140e-02 +1.9630948846e+01 1.9631037609e+01 4.9935713700e-03 0.0000e+00 0.0000e+00
       11  1    1    2    0    0 +1.9001116118e-03 -9.8135392861e-03 +1.0104899777e-01 1.0154347368e-01 5.1099893000e-04 0.0000e+00 1.0000e+00
<vert_displacement>
229.81379879211349
</vert_displacement>
</event>
<event>
 4   1200 +8.5212000e+10 1.31415000e-02 7.81665300e-03            nan
       50 -1    0    0    0    0 -4.3293059118e-03 +4.2994516469e-03 +3.1995215678e+00 3.1995312824e+00 4.9935713700e-03 0.0000e+00 0.0000e+00
       11 -1    0    0    0    0 +1.3144701417e-19 -1.3054057465e-19 -9.7144338015e-17 5.1100000000e-04 5.1099893000e-04 0.0000e+00 1.0000e+00
       50  1    1    2    0    0 +5.1301458478e-03 -3.7866959494e-03 +3.0476762399e+00 3.0476870011e+00 4.9935713700e-03 0.0000e+00 0.0000e+00
       11  1    1    2    0    0 -9.4594517596e-03 +8.0861475962e-03 +1.5184532789e-01 1.5235528127e-01 5.1099893000e-04 0.0000e+00 1.0000e+00
<vert_displacement>
457.81308211147592
</vert_displacement>
</event>
<event>
 4   1200 +8.5212000e+10 1.05218800e-02 7.81665300e-03            nan
       50 -1    0    0    0    0 -8.5696804707e-04 +4.0847539545e-03 +1.3491773687e+01 1.3491775257e+01 4.9935713700e-03 0.0000e+00 0.0000e+00
       11 -1    0    0    0    0 -5.2889206810e-20 +2.5209737680e-19 +8.3266722863e-16 5.1100000000e-04 5.1099893000e-04 0.0000e+00 1.0000e+00
       50  1    1    2    0    0 +5.4916151455e-03 -2.6889871278e-03 +1.3407315459e+01 1.3407317784e+01 4.9935713700e-03 0.0000e+00 0.0000e+00
       11  1    1    2    0    0 -6.3485831926e-03 +6.7737410824e-03 +8.4458227786e-02 8.4968473198e-02 5.1099893000e-04 0.0000e+00 1.0000e+00
<vert_displacement>
294.42773678047860
</vert_displacement>
</event>
<event>
 4   1200 +8.5212000e+10 1.49193400e-02 7.81665300e-03            nan
       50 -1    0    0    0    0 +9.1828934804e-02 -3.1939978199e-02 +3.1926156819e+01 3.1926305250e+01 4.9935713700e-03 0.0000e+00 0.0000e+00
       11 -1    0    0    0    0 +6.7857843608e-19 -2.3602343315e-19 +2.3592129878e-16 5.1100000000e-04 5.1099893000e-04 0.0000e+00 1.0000e+00
       50  1    1    2    0    0 +1.0498260247e-01 -2.8647951605e-02 +3.1731535168e+01 3.1731722158e+01 4.9935713700e-03 0.0000e+00 0.0000e+00
       11  1    1    2    0    0 -1.3153667666e-02 -3.2920265936e-03 +1.9462165119e-01 1.9509409177e-01 5.1099893000e-04 0.0000e+00 1.0000e+00
<vert_displacement>
260.76884784950192
</vert_displacement>
</event>
<event>
 4   1200 +8.5212000e+10 1.45447700e-02 7.81665300e-03            nan
       50 -1    0    0    0    0 +2.6036736562e-02 +1.2469088579e-03 +9.5786881909e+00 9.5787249601e+00 4.9935713700e-03 0.0000e+00 0.0000e+00
       11 -1    0    0    0    0 +4.1494623909e-19 +1.9871927492e-20 +1.5265510064e-16 5.1100000000e-04 5.1099893000e-04 0.0000e+00 1.0000e+00
       50  1    1    2    0    0 +3.2334571444e-02 +1.3068289578e-02 +9.3924316511e+00 9.3924977275e+00 4.9935713700e-03 0.0000e+00 0.0000e+00
       11  1    1    2    0    0 -6.2978348823e-03 -1.1821380721e-02 +1.8625653984e-01 1.8673823261e-01 5.1099893000e-04 0.0000e+00 1.0000e+00
<vert_displacement>
465.57521357117565
</vert_displacement>
</event>
<event>
 4   1200 +8.5212000e+10 6.79240700e-03 7.81665300e-03            nan
       50 -1    0    0    0    0 -1.2059246983e-03 -1.6290834172e-03 +3.4308586513e+00 3.4308628840e+00 4.9935713700e-03 0.0000e+00 0.0000e+00
       11 -1    0    0    0    0 +5.1218497027e-20 +6.9191056684e-20 -1.4571674655e-16 5.1100000000e-04 5.1099893000e-04 0.0000e+00 1.0000e+00
       50  1    1    2    0    0 -1.7490302210e-03 -6.1906092004e-03 +3.4099806061e+00 3.4099903303e+00 4.9935713700e-03 0.0000e+00 0.0000e+00
       11  1    1    2    0    0 +5.4310552269e-04 +4.5615257832e-03 +2.0878045151e-02 2.1383553735e-02 5.1099893000e-04 0.0000e+00 1.0000e+00
<vert_displacement>
280.02413033469600
</vert_displacement>
</event>
<event>
 4   1200 +8.5212000e+10 1.89354100e-02 7.81665300e-03            nan
       50 -1    0    0    0    0 -1.6357833193e-02 -1.8668227393e-02 +2.1949885584e+01 2.1949900186e+01 4.9935713700e-03 0.0000e+00 0.0000e+00
       11 -1    0    0    0    0 +2.7923975207e-19 +3.1867981091e-19 -3.7470003124e-16 5.1100000000e-04 5.1099893000e-04 0.0000e+00 1.0000e+00
       50  1    1    2    0    0 -6.8600776089e-03 -3.4135544574e-02 +2.1618428597e+01 2.1618457212e+01 4.9935713700e-03 0.0000e+00 0.0000e+00
       11  1    1    2    0    0 -9.4977555837e-03 +1.5467317181e-02 +3.3145698689e-01 3.3195397352e-01 5.1099893000e-04 0.0000e+00 1.0000e+00
<vert_displacement>
156.59342287295055
</vert_displacement>
</event>
<event>
 4   1200 +8.5212000e+10 1.11830200e-02 7.81665300e-03            nan
       50 -1    0    0    0    0 +1.8493889139e-02 +2.2339190428e-03 +6.6467286720e+00 6.6467566518e+00 4.9935713700e-03 0.0000e+00 0.0000e+00
       11 -1    0    0    0    0 -6.1781552740e-19 -7.4627346429e-20 -2.2204373288e-16 5.1100000000e-04 5.1099893000e-04 0.0000e+00 1.0000e+00
       50  1    1    2    0    0 +2.7856048314e-02 +4.8864576743e-03 +6.5472310170e+00 6.5472940031e+00 4.9935713700e-03 0.0000e+00 0.0000e+00
       11  1    1    2    0    0 -9.3621591748e-03 -2.6525386315e-03 +9.9497654936e-02 9.9973648745e-02 5.1099893000e-04 0.0000e+00 1.0000e+00
<vert_displacement>
356.60481433007834
</vert_displacement>
</event>
<event>
 4   1200 +8.5212000e+10 1.29719900e-02 7.81665300e-03            nan
       50 -1    0    0    0    0 -1.3488452246e-02 +1.1787285185e-02 +1.2146003348e+01 1.2146017583e+01 4.9935713700e-03 0.0000e+00 0.0000e+00
       11 -1    0    0    0    0 +6.1646508468e-19 -5.3871634991e-19 -5.5511090861e-16 5.1100000000e-04 5.1099893000e-04 0.0000e+00 1.0000e+00
       50  1    1    2    0    0 -1.2872843270e-02 +2.3613124992e-02 +1.2004073661e+01 1.2004104827e+01 4.9935713700e-03 0.0000e+00 0.0000e+00
       11  1    1    2    0    0 -6.1560897659e-04 -1.1825839806e-02 +1.4192968603e-01 1.4242375630e-01 5.1099893000e-04 0.0000e+00 1.0000e+00
<vert_displacement>
409.14156825039311
</vert_displacement>
</event>
<event>
 4   1200 +8.5212000e+10 1.49179900e-02 7.81665300e-03            nan
       50 -1    0    0    0    0 -4.1795629187e-02 +2.0750973114e-02 +2.1497341050e+01 2.1497392275e+01 4.9935713700e-03 0.0000e+00 0.0000e+00
       11 -1    0    0    0    0 +1.4030355790e-18 -6.9658847453e-19 -7.2164326590e-16 5.1100000000e-04 5.1099893000e-04 0.0000e+00 1.0000e+00
       50  1    1    2    0    0 -2.7819911467e-02 +2.4133299058e-02 +2.1302229891e+01 2.1302262313e+01 4.9935713700e-03 0.0000e+00 0.0000e+00
       11  1    1    2    0    0 -1.3975717720e-02 -3.3823259444e-03 +1.9511115857e-01 1.9564096231e-01 5.1099893000e-04 0.0000e+00 1.0000e+00
<vert_displacement>
240.91477824278601
</vert_displacement>
</event>
<event>
 4   1200 +8.5212000e+10 1.02023700e-02 7.81665300e-03            nan
       50 -1    0    0    0    0 +1.5592918470e-02 -9.6256171797e-03 +3.2658916944e+01 3.2658922466e+01 4.9935713700e-03 0.0000e+00 0.0000e+00
       11 -1    0    0    0    0 +1.8552559609e-19 -1.1452624269e-19 +3.8857799745e-16 5.1100000000e-04 5.1099893000e-04 0.0000e+00 1.0000e+00
       50  1    1    2    0    0 +1.4271878266e-02 -1.8406369390e-02 +3.2581280393e+01 3.2581289101e+01 4.9935713700e-03 0.0000e+00 0.0000e+00
       11  1    1    2    0    0 +1.3210402041e-03 +8.7807522101e-03 +7.7636550847e-02 7.8144365785e-02 5.1099893000e-04 0.0000e+00 1.0000e+00
<vert_displacement>
485.78246134013517
</vert_displacement>
</event>
<event>
 4   1200 +8.5212000e+10 2.83213800e-02 7.81665300e-03            nan
       50 -1    0    0    0    0 +1.3800136659e-01 +7.5724487868e-02 +4.0982056583e+01 4.0982359196e+01 4.9935713700e-03 0.0000e+00 0.0000e+00
       11 -1    0    0    0    0 +6.0750524246e-19 +3.3335194063e-19 +1.8040991069e-16 5.1100000000e-04 5.1099893000e-04 0.0000e+00 1.0000e+00
       50  1    1    2    0    0 +1.1403221044e-01 +5.6377390903e-02 +4.0207053705e+01 4.0207255245e+01 4.9935713700e-03 0.0000e+00 0.0000e+00
       11  1    1    2    0    0 +2.3969156154e-02 +1.9347096965e-02 +7.7500287780e-01 7.7561495107e-01 5.1099893000e-04 0.0000e+00 1.0000e+00
<vert_displacement>
316.77074450088401
</vert_displacement>
</event>
<event>
 4   1200 +8.5212000e+10 1.97151000e-02 7.81665300e-03            nan
       50 -1    0    0    0    0 +3.7550662742e-02 -1.6160784788e-03 +2.2489291508e+01 2.2489323470e+01 4.9935713700e-03 0.0000e+00 0.0000e+00
       11 -1    0    0    0    0 +1.5293447776e-18 -6.5818843164e-20 +9.1593271617e-16 5.1100000000e-04 5.1099893000e-04 0.0000e+00 1.0000e+00
       50  1    1    2    0    0 +5.4700286230e-02 +5.3781714102e-03 +2.2127510429e+01 2.2127579257e+01 4.9935713700e-03 0.0000e+00 0.0000e+00
       11  1    1    2    0    0 -1.7149623488e-02 -6.9942498890e-03 +3.6178107866e-01 3.6225521268e-01 5.1099893000e-04 0.0000e+00 1.0000e+00
<vert_displacement>
255.00491111400498
</vert_displacement>
</event>
<event>
 4   1200 +8.5212000e+10 1.47492300e-02 7.81665300e-03            nan
       50 -1    0    0    0    0 +5.0931379619e-02 +6.1301609495e-02 +2.3511341215e+01 2.3511476826e+01 4.9935713700e-03 0.0000e+00 0.0000e+00
       11 -1    0    0    0    0 +2.0743157956e-18 +2.4966709684e-18 +9.5756185720e-16 5.1100000000e-04 5.1099893000e-04 0.0000e+00 1.0000e+00
       50  1    1    2    0    0 +5.3774883192e-02 +7.4297206998e-02 +2.3321301084e+01 2.3321481964e+01 4.9935713700e-03 0.0000e+00 0.0000e+00
       11  1    1    2    0    0 -2.8435035727e-03 -1.2995597503e-02 +1.9004013112e-01 1.9050586243e-01 5.1099893000e-04 0.0000e+00 1.0000e+00
<vert_displacement>
43.628201957338099
</vert_displacement>
</event>
<event>
 4   1200 +8.5212000e+10 3.42373600e-02 7.81665300e-03            nan
       50 -1    0    0    0    0 -5.1490585757e-02 -3.8601703157e-02 +2.5514491346e+01 2.5514572992e+01 4.9935713700e-03 0.0000e+00 0.0000e+00
       11 -1    0    0    0    0 +6.4415089582e-18 +4.8291005634e-18 -3.1918810430e-15 5.1100000000e-04 5.1099893000e-04 0.0000e+00 1.0000e+00
       50  1    1    2    0    0 -8.2933046750e-02 -3.8725270727e-02 +2.4337496530e+01 2.4337669154e+01 4.9935713700e-03 0.0000e+00 0.0000e+00
       11  1    1    2    0    0 +3.1442460993e-02 +1.2356756913e-04 +1.1769948159e+00 1.1774148383e+00 5.1099893000e-04 0.0000e+00 1.0000e+00
<vert_displacement>
97.972510953171977
</vert_displacement>
</event>
<event>
 4   1200 +8.5212000e+10 6.12625500e-03 7.81665300e-03            nan
       50 -1    0    0    0    0 +3.5595045765e-03 -5.5709585169e-03 +3.4030571193e+00 3.4030672045e+00 4.9935713700e-03 0.0000e+00 0.0000e+00
       11 -1    0    0    0    0 -2.6854153603e-19 +4.2029269106e-19 -2.5673858998e-16 5.1100000000e-04 5.1099893000e-04 0.0000e+00 1.0000e+00
       50  1    1    2    0    0 +3.9435331787e-03 -9.0774082108e-03 +3.3906796798e+00 3.3906978010e+00 4.9935713700e-03 0.0000e+00 0.0000e+00
       11  1    1    2    0    0 -3.8402860225e-04 +3.5064496939e-03 +1.2377439452e-02 1.2880403515e-02 5.1099893000e-04 0.0000e+00 1.0000e+00
<vert_displacement>
397.47173090488826
</vert_displacement>
</event>
<event>
 4   1200 +8.5212000e+10 2.41791700e-02 7.81665300e-03            nan
       50 -1    0    0    0    0 +2.4137109081e-02 -2.8001916397e-02 +1.3340736410e+01 1.3340788567e+01 4.9935713700e-03 0.0000e+00 0.0000e+00
       11 -1    0    0    0    0 -9.0391277818e-19 +1.0486462964e-18 -4.9959844283e-16 5.1100000000e-04 5.1099893000e-04 0.0000e+00 1.0000e+00
       50  1    1    2    0    0 +2.0071488434e-02 -5.0263749575e-02 +1.2768433902e+01 1.2768549587e+01 4.9935713700e-03 0.0000e+00 0.0000e+00
       11  1    1    2    0    0 +4.0656206472e-03 +2.2261833178e-02 +5.7230250732e-01 5.7274997991e-01 5.1099893000e-04 0.0000e+00 1.0000e+00
<vert_displacement>
39.806753501197427
</vert_displacement>
</event>
<event>
 4   1200 +8.5212000e+10 9.98026700e-03 7.81665300e-03            nan
       50 -1    0    0    0    0 +1.7554077142e-02 -1.8778409378e-03 +5.2289057956e+00 5.2289379827e+00 4.9935713700e-03 0.0000e+00 0.0000e+00
       11 -1    0    0    0    0 -3.4708929973e-18 +3.7129750020e-19 -1.0338892989e-15 5.1100000000e-04 5.1099893000e-04 0.0000e+00 1.0000e+00
       50  1    1    2    0    0 +1.3641443187e-02 +5.9747874254e-03 +5.1547959115e+00 5.1548198428e+00 4.9935713700e-03 0.0000e+00 0.0000e+00
       11  1    1    2    0    0 +3.9126339551e-03 -7.8526283632e-03 +7.4109884157e-02 7.4629139927e-02 5.1099893000e-04 0.0000e+00 1.0000e+00
<vert_displacement>
404.15031588389854
</vert_displacement>
</event>
<event>
 4   1200 +8.5212000e+10 1.34793300e-02 7.81665300e-03            nan
       50 -1    0    0    0    0 -3.9880915804e-03 +1.8812953485e-02 +1.8365691231e+01 1.8365701979e+01 4.9935713700e-03 0.0000e+00 0.0000e+00
       11 -1    0    0    0    0 -3.9778809371e-19 +1.8764786999e-18 +1.8318669864e-15 5.1100000000e-04 5.1099893000e-04 0.0000e+00 1.0000e+00
       50  1    1    2    0    0 +2.5974987708e-03 +7.9854829057e-03 +1.8211012484e+01 1.8211015105e+01 4.9935713700e-03 0.0000e+00 0.0000e+00
       11  1    1    2    0    0 -6.5855903512e-03 +1.0827470579e-02 +1.5467874704e-01 1.5519787378e-01 5.1099893000e-04 0.0000e+00 1.0000e+00
<vert_displacement>
468.22162309678845
</vert_displacement>
</event>
<event>
 4   1200 +8.5212000e+10 1.20592000e-02 7.81665300e-03            nan
       50 -1    0    0    0    0 +2.9238361289e-02 -5.3266617577e-03 +1.0342857085e+01 1.0342900989e+01 4.9935713700e-03 0.0000e+00 0.0000e+00
       11 -1    0    0    0    0 +1.7654014062e-19 -3.2162186056e-20 +6.2449787322e-17 5.1100000000e-04 5.1099893000e-04 0.0000e+00 1.0000e+00
       50  1    1    2    0    0 +1.8212137452e-02 -7.7617028165e-03 +1.0223606942e+01 1.0223627330e+01 4.9935713700e-03 0.0000e+00 0.0000e+00
       11  1    1    2    0    0 +1.1026223837e-02 +2.4350410588e-03 +1.1925014221e-01 1.1978465917e-01 5.1099893000e-04 0.0000e+00 1.0000e+00
<vert_displacement>
430.50079447983438
</vert_displacement>
</event>
<event>
 4   1200 +8.5212000e+10 6.44506000e-03 7.81665300e-03            nan
       50 -1    0    0    0    0 -4.3860884363e-04 -4.5754103122e-03 +2.6529763093e+00 2.6529849906e+00 4.9935713700e-03 0.0000e+00 0.0000e+00
       11 -1    0    0    0    0 +2.2943707811e-21 +2.3934053963e-20 -1.3877766979e-17 5.1100000000e-04 5.1099893000e-04 0.0000e+00 1.0000e+00
       50  1    1    2    0    0 -4.4127734108e-03 -3.6597599630e-03 +2.6366267197e+00 2.6366376811e+00 4.9935713700e-03 0.0000e+00 0.0000e+00
       11  1    1    2    0    0 +3.9741645672e-03 -9.1565034920e-04 +1.6349589555e-02 1.6858309467e-02 5.1099893000e-04 0.0000e+00 1.0000e+00
<vert_displacement>
80.223434866834396
</vert_displacement>
</event>
<event>
 4   1200 +8.5212000e+10 6.05924400e-03 7.81665300e-03            nan
       50 -1    0    0    0    0 -4.4495766627e-02 +2.9781016034e-02 +1.8629472917e+01 1.8629550528e+01 4.9935713700e-03 0.0000e+00 0.0000e+00
       11 -1    0    0    0    0 +3.9775699076e-18 -2.6621874883e-18 -1.6653276589e-15 5.1100000000e-04 5.1099893000e-04 0.0000e+00 1.0000e+00
       50  1    1    2    0    0 -4.2374277653e-02 +2.7043389759e-02 +1.8617949717e+01 1.8618018249e+01 4.9935713700e-03 0.0000e+00 0.0000e+00
       11  1    1    2    0    0 -2.1214889743e-03 +2.7376262754e-03 +1.1523200148e-02 1.2043279232e-02 5.1099893000e-04 0.0000e+00 1.0000e+00
<vert_displacement>
138.18532676019231
</vert_displacement>
</event>
<event>
 4   1200 +8.5212000e+10 3.36578400e-02 7.81665300e-03            nan
       50 -1    0    0    0    0 -1.9184350123e-03 -4.2921052459e-03 +4.3658659327e+00 4.3658713197e+00 4.9935713700e-03 0.0000e+00 0.0000e+00
       11 -1    0    0    0    0 +1.5245325325e-19 +3.4108291594e-19 -3.4694449404e-16 5.1100000000e-04 5.1099893000e-04 0.0000e+00 1.0000e+00
       50  1    1    2    0    0 -3.0894264899e-02 -1.6862281969e-02 +2.2692400945e+00 2.2695185248e+00 4.9935713700e-03 0.0000e+00 0.0000e+00
       11  1    1    2    0    0 +2.8975829887e-02 +1.2570176723e-02 +2.0966258382e+00 2.0968637949e+00 5.1099893000e-04 0.0000e+00 1.0000e+00
<vert_displacement>
144.96252894942660
</vert_displacement>
</event>
<event>
 4   1200 +8.5212000e+10 6.27507600e-03 7.81665300e-03            nan
       50 -1    0    0    0    0 +2.4720471432e-02 +1.3441264258e-02 +1.1964972886e+01 1.1965007015e+01 4.9935713700e-03 0.0000e+00 0.0000e+00
       11 -1    0    0    0    0 +1.5769820909e-18 +8.5745262070e-19 +7.6327621873e-16 5.1100000000e-04 5.1099893000e-04 0.0000e+00 -1.0000e+00
       50  1    1    2    0    0 +2.3620021820e-02 +1.7071369361e-02 +1.1950823719e+01 1.1950860297e+01 4.9935713700e-03 0.0000e+00 0.0000e+00
       11  1    1    2    0    0 +1.1004496128e-03 -3.6301051033e-03 +1.4149167027e-02 1.4657718100e-02 5.1099893000e-04 0.0000e+00 -1.0000e+00
<vert_displacement>
186.61228762390169
</vert_displacement>
</event>
<event>
 4   1200 +8.5212000e+10 7.84201700e-03 7.81665300e-03            nan
       50 -1    0    0    0    0 -3.3817204457e-02 +4.4320903221e-02 +3.2030871708e+01 3.2030920612e+01 4.9935713700e-03 0.0000e+00 0.0000e+00
       11 -1    0    0    0    0 +4.3955151877e-19 -5.7607719611e-19 -4.1633300365e-16 5.1100000000e-04 5.1099893000e-04 0.0000e+00 1.0000e+00
       50  1    1    2    0    0 -3.0467146382e-02 +4.9330051397e-02 +3.1995053168e+01 3.1995106093e+01 4.9935713700e-03 0.0000e+00 0.0000e+00
       11  1    1    2    0    0 -3.3500580749e-03 -5.0091481755e-03 +3.5818539257e-02 3.6325518977e-02 5.1099893000e-04 0.0000e+00 1.0000e+00
<vert_displacement>
403.56297820874750
</vert_displacement>
</event>
<event>
 4   1200 +8.5212000e+10 1.03885800e-02 7.81665300e-03            nan
       50 -1    0    0    0    0 -2.9049984279e-03 +1.2098166953e-02 +1.6796753731e+01 1.6796759081e+01 4.9935713700e-03 0.0000e+00 0.0000e+00
       11 -1    0    0    0    0 +8.6405854883e-20 -3.5984613557e-19 -4.9960022402e-16 5.1100000000e-04 5.1099893000e-04 0.0000e+00 1.0000e+00
       50  1    1    2    0    0 -9.5638587644e-03 +5.8379160481e-03 +1.6715157117e+01 1.6715161618e+01 4.9935713700e-03 0.0000e+00 0.0000e+00
       11  1    1    2    0    0 +6.6588603365e-03 +6.2602509053e-03 +8.1596613879e-02 8.2108462894e-02 5.1099893000e-04 0.0000e+00 1.0000e+00
<vert_displacement>
297.29708244812252
</vert_displacement>
</event>
<event>
 4   1200 +8.5212000e+10 1.95800700e-02 7.81665300e-03            nan
       50 -1    0    0    0    0 +4.9687110116e-03 -8.1666428485e-03 +5.7764870031e+00 5.7764970713e+00 4.9935713700e-03 0.0000e+00 0.0000e+00
       11 -1    0    0    0    0 -1.0504666231e-18 +1.7265616203e-18 -1.2212436548e-15 5.1100000000e-04 5.1099893000e-04 0.0000e+00 1.0000e+00
       50  1    1    2    0    0 +1.5956976999e-02 +7.5462107280e-03 +5.4012638569e+00 5.4012950075e+00 4.9935713700e-03 0.0000e+00 0.0000e+00
       11  1    1    2    0    0 -1.0988265988e-02 -1.5712853577e-02 +3.7522314617e-01 3.7571306379e-01 5.1099893000e-04 0.0000e+00 1.0000e+00
<vert_displacement>
134.60629238761928
</vert_displacement>
</event>
<event>
 4   1200 +8.5212000e+10 1.60876200e-02 7.81665300e-03            nan
       50 -1    0    0    0    0 +1.4863490926e-02 -6.0918401325e-02 +3.0808235792e+01 3.0808300010e+01 4.9935713700e-03 0.0000e+00 0.0000e+00
       11 -1    0    0    0    0 -1.4662818233e-18 +6.0095939115e-18 -3.0392292347e-15 5.1100000000e-04 5.1099893000e-04 0.0000e+00 1.0000e+00
       50  1    1    2    0    0 +1.0895948906e-02 -7.5261265580e-02 +3.0577636807e+01 3.0577731777e+01 4.9935713700e-03 0.0000e+00 0.0000e+00
       11  1    1    2    0    0 +3.9675420198e-03 +1.4342864255e-02 +2.3059898438e-01 2.3107923286e-01 5.1099893000e-04 0.0000e+00 1.0000e+00
<vert_displacement>
435.95207629873732
</vert_displacement>
</event>
<event>
 4   1200 +8.5212000e+10 2.89097500e-02 7.81665300e-03            nan
       50 -1    0    0    0    0 +4.4152053390e-02 +6.0143759710e-03 +3.1708503840e+01 3.1708535543e+01 4.9935713700e-03 0.0000e+00 0.0000e+00
       11 -1    0    0    0    0 +2.2415733725e-18 +3.0534627484e-19 +1.6098217961e-15 5.1100000000e-04 5.1099893000e-04 0.0000e+00 1.0000e+00
       50  1    1    2    0    0 +6.4542099473e-02 -1.2782965116e-02 +3.0894152991e+01 3.0894223457e+01 4.9935713700e-03 0.0000e+00 0.0000e+00
       11  1    1    2    0    0 -2.0390046083e-02 +1.8797341087e-02 +8.1435084938e-01 8.1482308571e-01 5.1099893000e-04 0.0000e+00 1.0000e+00
<vert_displacement>
388.90483633860214
</vert_displacement>
</event>
<event>
 4   1200 +8.5212000e+10 1.43551500e-02 7.81665300e-03            nan
       50 -1    0    0    0    0 -1.4622171600e-02 -2.1008838199e-02 +8.7661648134e+00 8.7662036053e+00 4.9935713700e-03 0.0000e+00 0.0000e+00
       11 -1    0    0    0    0 -1.3310319514e-18 -1.9123995854e-18 +7.9796939725e-16 5.1100000000e-04 5.1099893000e-04 0.0000e+00 1.0000e+00
       50  1    1    2    0    0 -2.3800998574e-02 -1.1022565048e-02 +8.5851796129e+00 8.5852211332e+00 4.9935713700e-03 0.0000e+00 0.0000e+00
       11  1    1    2    0    0 +9.1788269743e-03 -9.9862731514e-03 +1.8098520051e-01 1.8149347217e-01 5.1099893000e-04 0.0000e+00 1.0000e+00
<vert_displacement>
272.79222071883919
</vert_displacement>
</event>
<event>
 4   1200 +8.5212000e+10 7.59026200e-03 7.81665300e-03            nan
       50 -1    0    0    0    0 -2.9016155310e-02 -3.2232087004e-03 +1.1770304149e+01 1.1770341415e+01 4.9935713700e-03 0.0000e+00 0.0000e+00
       11 -1    0    0    0    0 -3.6606218394e-18 -4.0663375405e-19 +1.4849187277e-15 5.1100000000e-04 5.1099893000e-04 0.0000e+00 1.0000e+00
       50  1    1    2    0    0 -3.4448153393e-02 -1.6963307404e-03 +1.1738229258e+01 1.1738280990e+01 4.9935713700e-03 0.0000e+00 0.0000e+00
       11  1    1    2    0    0 +5.4319980828e-03 -1.5268779600e-03 +3.2074891296e-02 3.2571425069e-02 5.1099893000e-04 0.0000e+00 1.0000e+00
<vert_displacement>
277.43177519711782
</vert_displacement>
</event>
<event>
 4   1200 +8.5212000e+10 1.04179500e-02 7.81665300e-03            nan
       50 -1    0    0    0    0 +2.5551259264e-02 -3.6431315599e-02 +2.3367630783e+01 2.3367673685e+01 4.9935713700e-03 0.0000e+00 0.0000e+00
       11 -1    0    0    0    0 +2.1244431689e-19 -3.0290585195e-19 +1.9428867704e-16 5.1100000000e-04 5.1099893000e-04 0.0000e+00 1.0000e+00
       50  1    1    2    0    0 +3.3080524297e-02 -3.1248786775e-02 +2.3285541591e+01 2.3285586592e+01 4.9935713700e-03 0.0000e+00 0.0000e+00
       11  1    1    2    0    0 -7.5292650330e-03 -5.1825288234e-03 +8.2089192426e-02 8.2598093622e-02 5.1099893000e-04 0.0000e+00 1.0000e+00
<vert_displacement>
94.420052897026920
</vert_displacement>
</event>
<event>
 4   1200 +8.5212000e+10 2.41359200e-02 7.81665300e-03            nan
       50 -1    0    0    0    0 +2.4395285417e-02 -1.0921516584e-03 +1.2219025397e+01 1.2219050819e+01 4.9935713700e-03 0.0000e+00 0.0000e+00
       11 -1    0    0    0    0 -1.3437870461e-18 +6.0159954101e-20 -6.7307136456e-16 5.1100000000e-04 5.1099893000e-04 0.0000e+00 1.0000e+00
       50  1    1    2    0    0 +4.5442124920e-02 -9.1166225678e-03 +1.1646478225e+01 1.1646571516e+01 4.9935713700e-03 0.0000e+00 0.0000e+00
       11  1    1    2    0    0 -2.1046839503e-02 +8.0244709093e-03 +5.7254717174e-01 5.7299030234e-01 5.1099893000e-04 0.0000e+00 1.0000e+00
<vert_displacement>
431.89337671766737
</vert_displacement>
</event>
<event>
 4   1200 +8.5212000e+10 2.60324000e-02 7.81665300e-03            nan
       50 -1    0    0    0    0 +9.4225665960e-03 -1.5297052807e-03 +4.7983525328e+00 4.7983646266e+00 4.9935713700e-03 0.0000e+00 0.0000e+00
       11 -1    0    0    0    0 -1.2944642370e-18 +2.1014961888e-19 -6.5919361640e-16 5.1100000000e-04 5.1099893000e-04 0.0000e+00 1.0000e+00
       50  1    1    2    0    0 +8.3005122841e-03 +2.4258766312e-02 +4.0387321001e+00 4.0388165715e+00 4.9935713700e-03 0.0000e+00 0.0000e+00
       11  1    1    2    0    0 +1.1220543119e-03 -2.5788471593e-02 +7.5962043274e-01 7.6005905509e-01 5.1099893000e-04 0.0000e+00 1.0000e+00
<vert_displacement>
380.95656918491977
</vert_displacement>
</event>
<event>
 4   1200 +8.5212000e+10 2.95970300e-02 7.81665300e-03            nan
       50 -1    0    0    0    0 -1.5583921944e-03 +2.4471177605e-02 +1.1521284298e+01 1.1521311474e+01 4.9935713700e-03 0.0000e+00 0.0000e+00
       11 -1    0    0    0    0 +1.1825940227e-19 -1.8570080413e-18 -8.7429865176e-16 5.1100000000e-04 5.1099893000e-04 0.0000e+00 1.0000e+00
       50  1    1    2    0    0 -2.7632251279e-02 +3.5389361414e-02 +1.0617439663e+01 1.0617535773e+01 4.9935713700e-03 0.0000e+00 0.0000e+00
       11  1    1    2    0    0 +2.6073859085e-02 -1.0918183809e-02 +9.0384463450e-01 9.0428670083e-01 5.1099893000e-04 0.0000e+00 1.0000e+00
<vert_displacement>
88.208547335690042
</vert_displacement>
</event>
<event>
 4   1200 +8.5212000e+10 1.55226600e-02 7.81665300e-03            nan
       50 -1    0    0    0    0 +8.0230064829e-03 -6.4934092737e-03 +3.6175854026e+00 3.6176035733e+00 4.9935713700e-03 0.0000e+00 0.0000e+00
       11 -1    0    0    0    0 -8.4638804325e-20 +6.8502299990e-20 -3.8163761137e-17 5.1100000000e-04 5.1099893000e-04 0.0000e+00 1.0000e+00
       50  1    1    2    0    0 -7.1571559245e-03 -6.8065931784e-03 +3.3920636175e+00 3.3920816729e+00 4.9935713700e-03 0.0000e+00 0.0000e+00
       11  1    1    2    0    0 +1.5180162407e-02 +3.1318390469e-04 +2.2552178502e-01 2.2603290037e-01 5.1099893000e-04 0.0000e+00 1.0000e+00
<vert_displacement>
194.88326059959826
</vert_displacement>
</event>
<event>
 4   1200 +8.5212000e+10 2.05288100e-02 7.81665300e-03            nan
       50 -1    0    0    0    0 -1.2520062920e-02 +1.8099868933e-02 +1.2237252762e+01 1.2237273571e+01 4.9935713700e-03 0.0000e+00 0.0000e+00
       11 -1    0    0    0    0 -1.3275586972e-18 +1.9192106760e-18 +1.2975710616e-15 5.1100000000e-04 5.1099893000e-04 0.0000e+00 1.0000e+00
       50  1    1    2    0    0 -3.0994914513e-02 +1.1194447817e-02 +1.1836089935e+01 1.1836136865e+01 4.9935713700e-03 0.0000e+00 0.0000e+00
       11  1    1    2    0    0 +1.8474851593e-02 +6.9054211152e-03 +4.0116282677e-01 4.0164770594e-01 5.1099893000e-04 0.0000e+00 1.0000e+00
<vert_displacement>
343.72450864553366
</vert_displacement>
</event>
<event>
 4   1200 +8.5212000e+10 1.37502600e-02 7.81665300e-03            nan
       50 -1    0    0    0    0 -1.3112977253e-02 -1.2336632539e-03 +1.0377260600e+01 1.0377270160e+01 4.9935713700e-03 0.0000e+00 0.0000e+00
       11 -1    0    0    0    0 -2.9811745092e-19 -2.8046761422e-20 +2.3592220271e-16 5.1100000000e-04 5.1099893000e-04 0.0000e+00 1.0000e+00
       50  1    1    2    0    0 -9.5318575882e-03 -1.3573219572e-02 +1.0214082987e+01 1.0214097674e+01 4.9935713700e-03 0.0000e+00 0.0000e+00
       11  1    1    2    0    0 -3.5811196651e-03 +1.2339556319e-02 +1.6317761303e-01 1.6368348598e-01 5.1099893000e-04 0.0000e+00 1.0000e+00
<vert_displacement>
101.15941566066701
</vert_displacement>
</event>
<event>
 4   1200 +8.5212000e+10 1.01313600e-02 7.81665300e-03            nan
       50 -1    0    0    0    0 -5.0065179904e-03 +1.5503665138e-02 +1.0933706177e+01 1.0933719455e+01 4.9935713700e-03 0.0000e+00 0.0000e+00
       11 -1    0    0    0    0 -3.5903483759e-19 +1.1118218102e-18 +7.8409414068e-16 5.1100000000e-04 5.1099893000e-04 0.0000e+00 1.0000e+00
       50  1    1    2    0    0 -1.2213029139e-02 +2.0421820658e-02 +1.0857118906e+01 1.0857146130e+01 4.9935713700e-03 0.0000e+00 0.0000e+00
       11  1    1    2    0    0 +7.2065111483e-03 -4.9181555197e-03 +7.6587270746e-02 7.7084325364e-02 5.1099893000e-04 0.0000e+00 1.0000e+00
<vert_displacement>
318.44961233193499
</vert_displacement>
</event>
<event>
 4   1200 +8.5212000e+10 1.93780800e-02 7.81665300e-03            nan
       50 -1    0    0    0    0 -3.7086124159e-02 -4.9802549848e-02 +2.6866909519e+01 2.6866981738e+01 4.9935713700e-03 0.0000e+00 0.0000e+00
       11 -1    0    0    0    0 -1.8198534797e-18 -2.4438613011e-18 +1.3183863207e-15 5.1100000000e-04 5.1099893000e-04 0.0000e+00 1.0000e+00
       50  1    1    2    0    0 -2.0970068263e-02 -3.8858939615e-02 +2.6519417511e+01 2.6519454742e+01 4.9935713700e-03 0.0000e+00 0.0000e+00
       11  1    1    2    0    0 -1.6116055896e-02 -1.0943610232e-02 +3.4749200777e-01 3.4803799569e-01 5.1099893000e-04 0.0000e+00 1.0000e+00
<vert_displacement>
175.79618853516141
</vert_displacement>
</event>
<event>
 4   1200 +8.5212000e+10 4.83198300e-02 7.81665300e-03            nan
       50 -1    0    0    0    0 -2.1169861405e-02 +2.0930399229e-03 +1.8625720048e+01 1.8625732866e+01 4.9935713700e-03 0.0000e+00 0.0000e+00
       11 -1    0    0    0    0 +7.8866924908e-20 -7.7974824335e-21 -6.9388893781e-17 5.1100000000e-04 5.1099893000e-04 0.0000e+00 1.0000e+00
       50  1    1    2    0    0 -4.0031313670e-02 -4.1007906315e-02 +1.5992838563e+01 1.5992942018e+01 4.9935713700e-03 0.0000e+00 0.0000e+00
       11  1    1    2    0    0 +1.8861452265e-02 +4.3100946238e-02 +2.6328814854e+00 2.6333018481e+00 5.1099893000e-04 0.0000e+00 1.0000e+00
<vert_displacement>
454.82760530927015
</vert_displacement>
</event>
<event>
 4   1200 +8.5212000e+10 1.71671800e-02 7.81665300e-03            nan
       50 -1    0    0    0    0 +2.2245775725e-02 +1.5499772985e-02 +8.6421167956e+00 8.6421607693e+00 4.9935713700e-03 0.0000e+00 0.0000e+00
       11 -1    0    0    0    0 +2.0183383695e-18 +1.4062798673e-18 +7.8409115234e-16 5.1100000000e-04 5.1099893000e-04 0.0000e+00 1.0000e+00
       50  1    1    2    0    0 +5.2607401409e-03 +1.2859644275e-02 +8.3695562639e+00 8.3695692862e+00 4.9935713700e-03 0.0000e+00 0.0000e+00
       11  1    1    2    0    0 +1.6985035584e-02 +2.6401287097e-03 +2.7256053173e-01 2.7310248313e-01 5.1099893000e-04 0.0000e+00 1.0000e+00
<vert_displacement>
194.59806783533907
</vert_displacement>
</event>
<event>
 4   1200 +8.5212000e+10 1.08651500e-02 7.81665300e-03            nan
       50 -1    0    0    0    0 +2.9451464760e-02 +3.7927982383e-02 +1.6007319656e+01 1.6007392462e+01 4.9935713700e-03 0.0000e+00 0.0000e+00
       11 -1    0    0    0    0 -2.4767279458e-18 -3.1895627148e-18 -1.3461393602e-15 5.1100000000e-04 5.1099893000e-04 0.0000e+00 1.0000e+00
       50  1    1    2    0    0 +1.9736284722e-02 +3.6304339543e-02 +1.5915701281e+01 1.5915755707e+01 4.9935713700e-03 0.0000e+00 0.0000e+00
       11  1    1    2    0    0 +9.7151800384e-03 +1.6236428405e-03 +9.1618375761e-02 9.2147755459e-02 5.1099893000e-04 0.0000e+00 1.0000e+00
<vert_displacement>
473.54628136113467
</vert_displacement>
</event>
<event>
 4   1200 +8.5212000e+10 9.15452700e-03 7.81665300e-03            nan
       50 -1    0    0    0    0 +4.7312844857e-02 -2.3275006230e-02 +1.8405789068e+01 1.8405865271e+01 4.9935713700e-03 0.0000e+00 0.0000e+00
       11 -1    0    0    0    0 -3.0679023614e-18 +1.5092190459e-18 -1.1934848542e-15 5.1100000000e-04 5.1099893000e-04 0.0000e+00 1.0000e+00
       50  1    1    2    0    0 +4.3290842588e-02 -2.9825066728e-02 +1.8348005277e+01 1.8348081268e+01 4.9935713700e-03 0.0000e+00 0.0000e+00
       11  1    1    2    0    0 +4.0220022693e-03 +6.5500604978e-03 +5.7783790876e-02 5.8295003240e-02 5.1099893000e-04 0.0000e+00 1.0000e+00
<vert_displacement>
323.86221263522970
</vert_displacement>
</event>
<event>
 4   1200 +8.5212000e+10 1.54922700e-02 7.81665300e-03            nan
       50 -1    0    0    0    0 +2.4063337782e-02 -7.4486046966e-02 +3.1896161305e+01 3.1896257745e+01 4.9935713700e-03 0.0000e+00 0.0000e+00
       11 -1    0    0    0    0 -1.6228115185e-18 +5.0232771562e-18 -2.1510506327e-15 5.1100000000e-04 5.1099893000e-04 0.0000e+00 1.0000e+00
       50  1    1    2    0    0 +1.9262236745e-02 -8.7902896614e-02 +3.1684276589e+01 3.1684404773e+01 4.9935713700e-03 0.0000e+00 0.0000e+00
       11  1    1    2    0    0 +4.8011010375e-03 +1.3416849649e-02 +2.1188471663e-01 2.1236397219e-01 5.1099893000e-04 0.0000e+00 1.0000e+00
<vert_displacement>
114.65052767337203
</vert_displacement>
</event>
<event>
 4   1200 +8.5212000e+10 1.27328800e-02 7.81665300e-03            nan
       50 -1    0    0    0    0 +5.9855153190e-03 +1.6768622735e-02 +1.4089968769e+01 1.4089980903e+01 4.9935713700e-03 0.0000e+00 0.0000e+00
       11 -1    0    0    0    0 +3.6256554315e-19 +1.0157395789e-18 +8.5348326875e-16 5.1100000000e-04 5.1099893000e-04 0.0000e+00 1.0000e+00
       50  1    1    2    0    0 +1.4896866700e-02 +9.0741412211e-03 +1.3954425788e+01 1.3954437583e+01 4.9935713700e-03 0.0000e+00 0.0000e+00
       11  1    1    2    0    0 -8.9113513810e-03 +7.6944815135e-03 +1.3554298095e-01 1.3605432016e-01 5.1099893000e-04 0.0000e+00 1.0000e+00
<vert_displacement>
1.0415110903554288
</vert_displacement>
</event>
<event>
 4   1200 +8.5212000e+10 2.10653900e-02 7.81665300e-03            nan
       50 -1    0    0    0    0 +3.0936499766e-03 -4.8112326541e-03 +1.1566265436e+01 1.1566267928e+01 4.9935713700e-03 0.0000e+00 0.0000e+00
       11 -1    0    0    0    0 +1.1506941462e-19 -1.7895551509e-19 +4.3021136943e-16 5.1100000000e-04 5.1099893000e-04 0.0000e+00 1.0000e+00
       50  1    1    2    0    0 -1.7455209815e-02 -3.5280571409e-03 +1.1140767693e+01 1.1140783045e+01 4.9935713700e-03 0.0000e+00 0.0000e+00
       11  1    1    2    0    0 +2.0548859792e-02 -1.2831755132e-03 +4.2549774280e-01 4.2599588311e-01 5.1099893000e-04 0.0000e+00 1.0000e+00
<vert_displacement>
369.43791854078660
</vert_displacement>
</event>
<event>
 4   1200 +8.5212000e+10 1.23993500e-02 7.81665300e-03            nan
       50 -1    0    0    0    0 -3.4529307932e-04 -5.9305339762e-03 +4.2135492856e+00 4.2135564323e+00 4.9935713700e-03 0.0000e+00 0.0000e+00
       11 -1    0    0    0    0 +5.2882570835e-20 +9.0827735005e-19 -6.4531649170e-16 5.1100000000e-04 5.1099893000e-04 0.0000e+00 1.0000e+00
       50  1    1    2    0    0 +1.1010574835e-02 -6.0547503392e-03 +4.0834597004e+00 4.0834820868e+00 4.9935713700e-03 0.0000e+00 0.0000e+00
       11  1    1    2    0    0 -1.1355867914e-02 +1.2421636303e-04 +1.3008958512e-01 1.3058534543e-01 5.1099893000e-04 0.0000e+00 1.0000e+00
<vert_displacement>
104.94880378002928
</vert_displacement>
</event>
<event>
 4   1200 +8.5212000e+10 8.40084200e-03 7.81665300e-03            nan
       50 -1    0    0    0    0 -9.8907333612e-02 -1.8297998575e-02 +3.3095248685e+01 3.3095401915e+01 4.9935713700e-03 0.0000e+00 0.0000e+00
       11 -1    0    0    0    0 -3.8986023110e-18 -7.2124701905e-19 +1.3045060289e-15 5.1100000000e-04 5.1099893000e-04 0.0000e+00 1.0000e+00
       50  1    1    2    0    0 -1.0391471358e-01 -2.2655968077e-02 +3.3050513987e+01 3.3050685489e+01 4.9935713700e-03 0.0000e+00 0.0000e+00
       11  1    1    2    0    0 +5.0073799669e-03 +4.3579695026e-03 +4.4734697316e-02 4.5227425487e-02 5.1099893000e-04 0.0000e+00 1.0000e+00
<vert_displacement>
120.97863103445611
</vert_displacement>
</event>
<event>
 4   1200 +8.5212000e+10 2.04589800e-02 7.81665300e-03            nan
       50 -1    0    0    0    0 -6.7376877151e-02 -4.8166593544e-02 +3.4222051286e+01 3.4222151873e+01 4.9935713700e-03 0.0000e+00 0.0000e+00
       11 -1    0    0    0    0 -2.1038488568e-18 -1.5040060781e-18 +1.0685865317e-15 5.1100000000e-04 5.1099893000e-04 0.0000e+00 1.0000e+00
       50  1    1    2    0    0 -6.5735987892e-02 -2.7797299187e-02 +3.3832477168e+01 3.3832552818e+01 4.9935713700e-03 0.0000e+00 0.0000e+00
       11  1    1    2    0    0 -1.6408892597e-03 -2.0369294357e-02 +3.8957411794e-01 3.9011005518e-01 5.1099893000e-04 0.0000e+00 1.0000e+00
<vert_displacement>
276.74007995381771
</vert_displacement>
</event>
<event>
 4   1200 +8.5212000e+10 7.21050900e-03 7.81665300e-03            nan
       50 -1    0    0    0    0 +5.3983062970e-02 +2.3015788102e-02 +2.2152870917e+01 2.2152949210e+01 4.9935713700e-03 0.0000e+00 0.0000e+00
       11 -1    0    0    0    0 -4.0581441597e-19 -1.7301979719e-19 -1.6653286936e-16 5.1100000000e-04 5.1099893000e-04 0.0000e+00 1.0000e+00
       50  1    1    2    0    0 +5.7928794924e-02 +1.9675703912e-02 +2.2126359049e+01 2.2126444192e+01 4.9935713700e-03 0.0000e+00 0.0000e+00
       11  1    1    2    0    0 -3.9457319545e-03 +3.3400841898e-03 +2.6511867434e-02 2.7016017430e-02 5.1099893000e-04 0.0000e+00 1.0000e+00
<vert_displacement>
317.66070127408369
</vert_displacement>
</event>
<event>
 4   1200 +8.5212000e+10 1.65917800e-02 7.81665300e-03            nan
       50 -1    0    0    0    0 -6.4504706322e-02 -4.3859020907e-02 +2.7227139872e+01 2.7227252065e+01 4.9935713700e-03 0.0000e+00 0.0000e+00
       11 -1    0    0    0    0 -4.2741641051e-19 -2.9061546596e-19 +1.8041050113e-16 5.1100000000e-04 5.1099893000e-04 0.0000e+00 1.0000e+00
       50  1    1    2    0    0 -5.2291671686e-02 -5.4191871014e-02 +2.6979937669e+01 2.6980043231e+01 4.9935713700e-03 0.0000e+00 0.0000e+00
       11  1    1    2    0    0 -1.2213034635e-02 +1.0332850108e-02 +2.4720220346e-01 2.4771983474e-01 5.1099893000e-04 0.0000e+00 1.0000e+00
<vert_displacement>
349.21393057660731
</vert_displacement>
</event>
<event>
 4   1200 +8.5212000e+10 1.44338600e-02 7.81665300e-03            nan
       50 -1    0    0    0    0 -4.3259012073e-03 -7.3956677044e-02 +3.4340639884e+01 3.4340720157e+01 4.9935713700e-03 0.0000e+00 0.0000e+00
       11 -1    0    0    0    0 +6.1011664426e-19 +1.0430705062e-17 -4.8433366746e-15 5.1100000000e-04 5.1099893000e-04 0.0000e+00 1.0000e+00
       50  1    1    2    0    0 -1.0106352104e-03 -6.0431991889e-02 +3.4160265418e+01 3.4160319252e+01 4.9935713700e-03 0.0000e+00 0.0000e+00
       11  1    1    2    0    0 -3.3152659969e-03 -1.3524685155e-02 +1.8037446600e-01 1.8091190453e-01 5.1099893000e-04 0.0000e+00 1.0000e+00
<vert_displacement>
240.76352413931093
</vert_displacement>
</event>
<event>
 4   1200 +8.5212000e+10 1.98325300e-02 7.81665300e-03            nan
       50 -1    0    0    0    0 +1.1925215806e-02 +1.3189021899e-02 +5.2642658682e+00 5.2642982655e+00 4.9935713700e-03 0.0000e+00 0.0000e+00
       11 -1    0    0    0    0 -8.9596502662e-19 -9.9091727559e-19 -3.9551469639e-16 5.1100000000e-04 5.1099893000e-04 0.0000e+00 1.0000e+00
       50  1    1    2    0    0 -7.9783917829e-03 +1.4778132282e-02 +4.8748642576e+00 4.8748957439e+00 4.9935713700e-03 0.0000e+00 0.0000e+00
       11  1    1    2    0    0 +1.9903607588e-02 -1.5891103826e-03 +3.8940161066e-01 3.8991352165e-01 5.1099893000e-04 0.0000e+00 1.0000e+00
<vert_displacement>
470.70756837376558
</vert_displacement>
</event>
<event>
 4   1200 +8.5212000e+10 1.49841500e-02 7.81665300e-03            nan
       50 -1    0    0    0    0 +3.9723267769e-05 -1.6501419862e-03 +2.0414209418e+00 2.0414277166e+00 4.9935713700e-03 0.0000e+00 0.0000e+00
       11 -1    0    0    0    0 -4.6582372338e-21 +1.9350756554e-19 -2.3939176143e-16 5.1100000000e-04 5.1099893000e-04 0.0000e+00 1.0000e+00
       50  1    1    2    0    0 -6.3624699313e-03 +1.1122848993e-02 +1.8222860007e+00 1.8223378948e+00 4.9935713700e-03 0.0000e+00 0.0000e+00
       11  1    1    2    0    0 +6.4021931991e-03 -1.2772990979e-02 +2.1913494112e-01 2.1960082176e-01 5.1099893000e-04 0.0000e+00 1.0000e+00
<vert_displacement>
241.47618259909427
</vert_displacement>
</event>
<event>
 4   1200 +8.5212000e+10 1.49527300e-02 7.81665300e-03            nan
       50 -1    0    0    0    0 -6.6177287221e-03 -2.7767473090e-04 +2.7649963932e+00 2.7650088357e+00 4.9935713700e-03 0.0000e+00 0.0000e+00
       11 -1    0    0    0    0 -5.6465387038e-19 -2.3692435591e-20 +2.3592171582e-16 5.1100000000e-04 5.1099893000e-04 0.0000e+00 1.0000e+00
       50  1    1    2    0    0 -1.9528454753e-02 -4.5799560408e-03 +2.5543773072e+00 2.5544609411e+00 4.9935713700e-03 0.0000e+00 0.0000e+00
       11  1    1    2    0    0 +1.2910726031e-02 +4.3022813099e-03 +2.1061908600e-01 2.1105889457e-01 5.1099893000e-04 0.0000e+00 1.0000e+00
<vert_displacement>
483.59330170294334
</vert_displacement>
</event>
<event>
 4   1200 +8.5212000e+10 8.33988700e-03 7.81665300e-03            nan
       50 -1    0    0    0    0 +1.9628845370e-02 -2.4759930728e-02 +9.7393173956e+00 9.7393699290e+00 4.9935713700e-03 0.0000e+00 0.0000e+00
       11 -1    0    0    0    0 +1.6362138251e-18 -2.0639288864e-18 +8.1184631441e-16 5.1100000000e-04 5.1099893000e-04 0.0000e+00 1.0000e+00
       50  1    1    2    0    0 +2.6193435765e-02 -2.4052066455e-02 +9.6954479531e+00 9.6955144548e+00 4.9935713700e-03 0.0000e+00 0.0000e+00
       11  1    1    2    0    0 -6.5645903952e-03 -7.0786427250e-04 +4.3869442513e-02 4.4366474113e-02 5.1099893000e-04 0.0000e+00 1.0000e+00
<vert_displacement>
89.479663976387044
</vert_displacement>
</event>
<event>
 4   1200 +8.5212000e+10 1.00966700e-02 7.81665300e-03            nan
       50 -1    0    0    0    0 -2.5127678244e-02 -1.7729914315e-03 +7.6886599095e+00 7.6887027959e+00 4.9935713700e-03 0.0000e+00 0.0000e+00
       11 -1    0    0    0    0 +1.6554363511e-18 +1.1680643303e-19 -5.0653653642e-16 5.1100000000e-04 5.1099893000e-04 0.0000e+00 1.0000e+00
       50  1    1    2    0    0 -2.9004692304e-02 +5.9895652986e-03 +7.6125384221e+00 7.6125976716e+00 4.9935713700e-03 0.0000e+00 0.0000e+00
       11  1    1    2    0    0 +3.8770140601e-03 -7.7625567301e-03 +7.6121487441e-02 7.6616124251e-02 5.1099893000e-04 0.0000e+00 1.0000e+00
<vert_displacement>
226.13710832050305
</vert_displacement>
</event>
<event>
 4   1200 +8.5212000e+10 9.79519600e-03 7.81665300e-03            nan
       50 -1    0    0    0    0 -2.0212994925e-02 -1.8629946339e-02 +4.0152452144e+01 4.0152461864e+01 4.9935713700e-03 0.0000e+00 0.0000e+00
       11 -1    0    0    0    0 +3.3533583986e-19 +3.0907288729e-19 -6.6613365867e-16 5.1100000000e-04 5.1099893000e-04 0.0000e+00 1.0000e+00
       50  1    1    2    0    0 -1.3717922734e-02 -1.3186732457e-02 +4.0082854789e+01 4.0082859617e+01 4.9935713700e-03 0.0000e+00 0.0000e+00
       11  1    1    2    0    0 -6.4950721908e-03 -5.4432138826e-03 +6.9597354405e-02 7.0113246966e-02 5.1099893000e-04 0.0000e+00 1.0000e+00
<vert_displacement>
36.909439868743014
</vert_displacement>
</event>
<event>
 4   1200 +8.5212000e+10 1.29134700e-02 7.81665300e-03            nan
       50 -1    0    0    0    0 -4.4870706717e-03 -2.7773056244e-03 +1.3707132520e+00 1.3707325057e+00 4.9935713700e-03 0.0000e+00 0.0000e+00
       11 -1    0    0    0    0 -1.5900155330e-19 -9.8415189013e-20 +4.8571897377e-17 5.1100000000e-04 5.1099893000e-04 0.0000e+00 1.0000e+00
       50  1    1    2    0    0 -3.0461956182e-03 +9.4139047771e-03 +1.2135839484e+00 1.2136345564e+00 4.9935713700e-03 0.0000e+00 0.0000e+00
       11  1    1    2    0    0 -1.4408750534e-03 -1.2191210402e-02 +1.5712930357e-01 1.5760894928e-01 5.1099893000e-04 0.0000e+00 1.0000e+00
<vert_displacement>
78.005951549611581
</vert_displacement>
</event>
<event>
 4   1200 +8.5212000e+10 5.57797400e-02 7.81665300e-03            nan
       50 -1    0    0    0    0 +4.4183675115e-03 -1.5624035477e-04 +1.2987867887e+01 1.2987869600e+01 4.9935713700e-03 0.0000e+00 0.0000e+00
       11 -1    0    0    0    0 -1.1802776977e-19 +4.1736457126e-21 -3.4694467509e-16 5.1100000000e-04 5.1099893000e-04 0.0000e+00 1.0000e+00
       50  1    1    2    0    0 -4.3311547969e-02 -3.2707696067e-02 +4.8140566274e+00 4.8143651535e+00 4.9935713700e-03 0.0000e+00 0.0000e+00
       11  1    1    2    0    0 +4.7729915481e-02 +3.2551455713e-02 +8.1738112597e+00 8.1740154460e+00 5.1099893000e-04 0.0000e+00 1.0000e+00
<vert_displacement>
31.022578412588643
</vert_displacement>
</event>
<event>
 4   1200 +8.5212000e+10 1.81626100e-02 7.81665300e-03            nan
       50 -1    0    0    0    0 -4.3942319073e-03 -4.0287240361e-02 +2.4731963886e+01 2.4731997593e+01 4.9935713700e-03 0.0000e+00 0.0000e+00
       11 -1    0    0    0    0 -1.2575179862e-19 -1.1529188817e-18 +7.0776622800e-16 5.1100000000e-04 5.1099893000e-04 0.0000e+00 1.0000e+00
       50  1    1    2    0    0 +7.7385783258e-03 -5.2406220294e-02 +2.4429866261e+01 2.4429924207e+01 4.9935713700e-03 0.0000e+00 0.0000e+00
       11  1    1    2    0    0 -1.2132810233e-02 +1.2118979933e-02 +3.0209762504e-01 3.0258438646e-01 5.1099893000e-04 0.0000e+00 1.0000e+00
<vert_displacement>
371.77544080157156
</vert_displacement>
</event>
<event>
 4   1200 +8.5212000e+10 2.36047800e-02 7.81665300e-03            nan
       50 -1    0    0    0    0 -3.6576630548e-02 +1.8337834462e-02 +1.5169189171e+01 1.5169245175e+01 4.9935713700e-03 0.0000e+00 0.0000e+00
       11 -1    0    0    0    0 +2.2252644843e-18 -1.1156449114e-18 -9.2286953205e-16 5.1100000000e-04 5.1099893000e-04 0.0000e+00 1.0000e+00
       50  1    1    2    0    0 -1.2232301801e-02 +1.6541109465e-02 +1.4629179540e+01 1.4629194858e+01 4.9935713700e-03 0.0000e+00 0.0000e+00
       11  1    1    2    0    0 -2.4344328747e-02 +1.7967249972e-03 +5.4000963119e-01 5.4056131702e-01 5.1099893000e-04 0.0000e+00 1.0000e+00
<vert_displacement>
324.26123559528060
</vert_displacement>
</event>
<event>
 4   1200 +8.5212000e+10 3.19921600e-02 7.81665300e-03            nan
       50 -1    0    0    0    0 +3.3087593612e-02 -2.5140832686e-02 +1.0234823014e+01 1.0234908594e+01 4.9935713700e-03 0.0000e+00 0.0000e+00
       11 -1    0    0    0    0 +1.5926848985e-18 -1.2101642997e-18 +4.9265740642e-16 5.1100000000e-04 5.1099893000e-04 0.0000e+00 1.0000e+00
       50  1    1    2    0    0 +2.8157847999e-02 +9.1167521699e-03 +9.1404957569e+00 9.1405450383e+00 4.9935713700e-03 0.0000e+00 0.0000e+00
       11  1    1    2    0    0 +4.9297456128e-03 -3.4257584855e-02 +1.0943272573e+00 1.0948745553e+00 5.1099893000e-04 0.0000e+00 1.0000e+00
<vert_displacement>
448.73252829757939
</vert_displacement>
</event>
<event>
 4   1200 +8.5212000e+10 7.95312700e-03 7.81665300e-03            nan
       50 -1    0    0    0    0 +4.8572695606e-03 +1.5027896641e-02 +1.2472322121e+01 1.2472333120e+01 4.9935713700e-03 0.0000e+00 0.0000e+00
       11 -1    0    0    0    0 +1.3781768868e-19 +4.2639387312e-19 +3.5388330538e-16 5.1100000000e-04 5.1099893000e-04 0.0000e+00 1.0000e+00
       50  1    1    2    0    0 +1.7748571203e-03 +9.6062263215e-03 +1.2434723015e+01 1.2434727854e+01 4.9935713700e-03 0.0000e+00 0.0000e+00
       11  1    1    2    0    0 +3.0824124403e-03 +5.4216703190e-03 +3.7599106870e-02 3.8116265988e-02 5.1099893000e-04 0.0000e+00 1.0000e+00
<vert_displacement>
351.20616698068534
</vert_displacement>
</event>
<event>
 4   1200 +8.5212000e+10 7.90361900e-03 7.81665300e-03            nan
       50 -1    0    0    0    0 -2.4644029177e-02 +1.8477858524e-02 +9.8193422280e+00 9.8193918083e+00 4.9935713700e-03 0.0000e+00 0.0000e+00
       11 -1    0    0    0    0 -1.9678675837e-18 +1.4754883847e-18 +7.8409115346e-16 5.1100000000e-04 5.1099893000e-04 0.0000e+00 1.0000e+00
       50  1    1    2    0    0 -2.9824554918e-02 +2.1527152543e-02 +9.7824591404e+00 9.7825295651e+00 4.9935713700e-03 0.0000e+00 0.0000e+00
       11  1    1    2    0    0 +5.1805257411e-03 -3.0492940191e-03 +3.6883087556e-02 3.7373243217e-02 5.1099893000e-04 0.0000e+00 1.0000e+00
<vert_displacement>
93.427707956045538
</vert_displacement>
</event>
<event>
 4   1200 +8.5212000e+10 3.96997000e-02 7.81665300e-03            nan
       50 -1    0    0    0    0 -8.6437593412e-03 -7.5963400548e-03 +7.7976548952e+00 7.7976649851e+00 4.9935713700e-03 0.0000e+00 0.0000e+00
       11 -1    0    0    0    0 -2.5382966140e-19 -2.2307150718e-19 +2.2898324949e-16 5.1100000000e-04 5.1099893000e-04 0.0000e+00 1.0000e+00
       50  1    1    2    0    0 -4.3656338081e-02 -1.8209864779e-02 +5.7296303526e+00 5.7298277800e+00 4.9935713700e-03 0.0000e+00 0.0000e+00
       11  1    1    2    0    0 +3.5012578739e-02 +1.0613524725e-02 +2.0680245427e+00 2.0683482052e+00 5.1099893000e-04 0.0000e+00 1.0000e+00
<vert_displacement>
149.19061813007659
</vert_displacement>
</event>
<event>
 4   1200 +8.5212000e+10 2.43349600e-02 7.81665300e-03            nan
       50 -1    0    0    0    0 -7.9283424194e-03 -8.6024644342e-03 +7.0770605550e+00 7.0770719861e+00 4.9935713700e-03 0.0000e+00 0.0000e+00
       11 -1    0    0    0    0 -5.4414817992e-19 -5.9041538787e-19 +4.8572190964e-16 5.1100000000e-04 5.1099893000e-04 0.0000e+00 1.0000e+00
       50  1    1    2    0    0 -2.2864595724e-02 -2.5846690807e-02 +6.4696308821e+00 6.4697248417e+00 4.9935713700e-03 0.0000e+00 0.0000e+00
       11  1    1    2    0    0 +1.4936253305e-02 +1.7244226373e-02 +6.0742967293e-01 6.0785814437e-01 5.1099893000e-04 0.0000e+00 1.0000e+00
<vert_displacement>
190.17700012574875
</vert_displacement>
</event>
<event>
 4   1200 +8.5212000e+10 1.76579000e-02 7.81665300e-03            nan
       50 -1    0    0    0    0 -2.9111943403e-02 +5.0435753149e-03 +1.1453324362e+01 1.1453363560e+01 4.9935713700e-03 0.0000e+00 0.0000e+00
       11 -1    0    0    0    0 -2.2751925156e-18 +3.9417172016e-19 +8.9511433529e-16 5.1100000000e-04 5.1099893000e-04 0.0000e+00 1.0000e+00
       50  1    1    2    0    0 -1.6434395898e-02 -7.0901702933e-03 +1.1165402807e+01 1.1165418269e+01 4.9935713700e-03 0.0000e+00 0.0000e+00
       11  1    1    2    0    0 -1.2677547505e-02 +1.2133745608e-02 +2.8792155577e-01 2.8845629026e-01 5.1099893000e-04 0.0000e+00 1.0000e+00
<vert_displacement>
431.85920164138508
</vert_displacement>
</event>
<event>
 4   1200 +8.5212000e+10 1.62447800e-02 7.81665300e-03            nan
       50 -1    0    0    0    0 -2.2500437313e-02 +1.8225265365e-02 +2.5491047771e+01 2.5491064706e+01 4.9935713700e-03 0.0000e+00 0.0000e+00
       11 -1    0    0    0    0 -2.1436865520e-18 +1.7363776413e-18 +2.4286112995e-15 5.1100000000e-04 5.1099893000e-04 0.0000e+00 1.0000e+00
       50  1    1    2    0    0 -1.9720308230e-02 +2.8137323832e-03 +2.5255055952e+01 2.5255064301e+01 4.9935713700e-03 0.0000e+00 0.0000e+00
       11  1    1    2    0    0 -2.7801290830e-03 +1.5411532982e-02 +2.3599181918e-01 2.3651140417e-01 5.1099893000e-04 0.0000e+00 1.0000e+00
<vert_displacement>
388.93516121909005
</vert_displacement>
</event>
<event>
 4   1200 +8.5212000e+10 8.92197900e-03 7.81665300e-03            nan
       50 -1    0    0    0    0 +3.3005695253e-02 -3.9857121088e-02 +1.5530308403e+01 1.5530395423e+01 4.9935713700e-03 0.0000e+00 0.0000e+00
       11 -1    0    0    0    0 -1.4746760992e-19 +1.7807939933e-19 -6.9388553826e-17 5.1100000000e-04 5.1099893000e-04 0.0000e+00 1.0000e+00
       50  1    1    2    0    0 +4.0196351904e-02 -3.8576259321e-02 +1.5476619340e+01 1.5476720422e+01 4.9935713700e-03 0.0000e+00 0.0000e+00
       11  1    1    2    0    0 -7.1906566510e-03 -1.2808617671e-03 +5.3689063260e-02 5.4186001731e-02 5.1099893000e-04 0.0000e+00 1.0000e+00
<vert_displacement>
485.74517618297659
</vert_displacement>
</event>
<event>
 4   1200 +8.5212000e+10 9.31548400e-03 7.81665300e-03            nan
       50 -1    0    0    0    0 -6.4991206828e-03 +1.0130507962e-03 +2.0299300424e+00 2.0299468411e+00 4.9935713700e-03 0.0000e+00 0.0000e+00
       11 -1    0    0    0    0 -1.9994198853e-19 +3.1165968530e-20 +6.2449717287e-17 5.1100000000e-04 5.1099893000e-04 0.0000e+00 1.0000e+00
       50  1    1    2    0    0 -1.2306939350e-02 -4.0923908870e-03 +1.9674415611e+00 1.9674906456e+00 4.9935713700e-03 0.0000e+00 0.0000e+00
       11  1    1    2    0    0 +5.8078186671e-03 +5.1054416832e-03 +6.2488481299e-02 6.2967195486e-02 5.1099893000e-04 0.0000e+00 1.0000e+00
<vert_displacement>
84.294791482691537
</vert_displacement>
</event>
<event>
 4   1200 +8.5212000e+10 1.11183000e-02 7.81665300e-03            nan
       50 -1    0    0    0    0 +4.4275485102e-03 -1.1778007167e-03 +1.9925458899e+00 1.9925574144e+00 4.9935713700e-03 0.0000e+00 0.0000e+00
       11 -1    0    0    0    0 -3.0837139871e-20 +8.2031863359e-21 -1.3877751122e-17 5.1100000000e-04 5.1099893000e-04 0.0000e+00 1.0000e+00
       50  1    1    2    0    0 +1.2808228078e-02 -6.0774216437e-03 +1.8906732762e+00 1.8907330216e+00 4.9935713700e-03 0.0000e+00 0.0000e+00
       11  1    1    2    0    0 -8.3806795682e-03 +4.8996209270e-03 +1.0187261371e-01 1.0233539280e-01 5.1099893000e-04 0.0000e+00 1.0000e+00
<vert_displacement>
360.79105740977667
</vert_displacement>
</event>
<event>
 4   1200 +8.5212000e+10 2.64580200e-02 7.81665300e-03            nan
       50 -1    0    0    0    0 +1.5427297932e-02 +1.3742461149e-02 +5.7171293339e+00 5.7171688459e+00 4.9935713700e-03 0.0000e+00 0.0000e+00
       11 -1    0    0    0    0 -1.6664384119e-18 -1.4844443423e-18 -6.1755752497e-16 5.1100000000e-04 5.1099893000e-04 0.0000e+00 1.0000e+00
       50  1    1    2    0    0 +3.5772489398e-02 +2.5067863980e-02 +4.9542110567e+00 4.9544061399e+00 4.9935713700e-03 0.0000e+00 0.0000e+00
       11  1    1    2    0    0 -2.0345191466e-02 -1.1325402831e-02 +7.6291827718e-01 7.6327370605e-01 5.1099893000e-04 0.0000e+00 1.0000e+00
<vert_displacement>
450.15238607675434
</vert_displacement>
</event>
<event>
 4   1200 +8.5212000e+10 1.05840600e-02 7.81665300e-03            nan
       50 -1    0    0    0    0 +2.7055534363e-03 +1.8060329157e-03 +7.4047728862e+00 7.4047752845e+00 4.9935713700e-03 0.0000e+00 0.0000e+00
       11 -1    0    0    0    0 -4.9692477511e-19 -3.3171124562e-19 -1.3600230739e-15 5.1100000000e-04 5.1099893000e-04 0.0000e+00 1.0000e+00
       50  1    1    2    0    0 +5.5382626787e-03 +1.0666600092e-02 +7.3185446119e+00 7.3185561841e+00 4.9935713700e-03 0.0000e+00 0.0000e+00
       11  1    1    2    0    0 -2.8327092424e-03 -8.8605671760e-03 +8.6228274309e-02 8.6730100326e-02 5.1099893000e-04 0.0000e+00 1.0000e+00
<vert_displacement>
489.06712482926616
</vert_displacement>
</event>
<event>
 4   1200 +8.5212000e+10 1.66673600e-02 7.81665300e-03            nan
       50 -1    0    0    0    0 +7.9942872490e-02 +4.9221435400e-02 +2.5261889040e+01 2.5262063978e+01 4.9935713700e-03 0.0000e+00 0.0000e+00
       11 -1    0    0    0    0 +1.8884244963e-18 +1.1627173437e-18 +5.9674075498e-16 5.1100000000e-04 5.1099893000e-04 0.0000e+00 1.0000e+00
       50  1    1    2    0    0 +9.0735279857e-02 +3.7839864099e-02 +2.5011974151e+01 2.5012167851e+01 4.9935713700e-03 0.0000e+00 0.0000e+00
       11  1    1    2    0    0 -1.0792407367e-02 +1.1381571301e-02 +2.4991488904e-01 2.5040712670e-01 5.1099893000e-04 0.0000e+00 1.0000e+00
<vert_displacement>
194.20738515438413
</vert_displacement>
</event>
<event>
 4   1200 +8.5212000e+10 1.43212700e-02 7.81665300e-03            nan
       50 -1    0    0    0    0 +2.4867369780e-02 +1.7288246441e-02 +8.2763144820e+00 8.2763714035e+00 4.9935713700e-03 0.0000e+00 0.0000e+00
       11 -1    0    0    0    0 -1.0632867040e-18 -7.3921619934e-19 -3.5388121964e-16 5.1100000000e-04 5.1099893000e-04 0.0000e+00 1.0000e+00
       50  1    1    2    0    0 +1.1282932358e-02 +1.3742624195e-02 +8.0961295286e+00 8.0961505942e+00 4.9935713700e-03 0.0000e+00 0.0000e+00
       11  1    1    2    0    0 +1.3584437422e-02 +3.5456222456e-03 +1.8018495336e-01 1.8073180936e-01 5.1099893000e-04 0.0000e+00 1.0000e+00
<vert_displacement>
231.88227701800884
</vert_displacement>
</event>
<event>
 4   1200 +8.5212000e+10 2.52837600e-02 7.81665300e-03            nan
       50 -1    0    0    0    0 +3.6855454837e-03 +2.9197334159e-02 +2.3537310426e+01 2.3537329353e+01 4.9935713700e-03 0.0000e+00 0.0000e+00
       11 -1    0    0    0    0 +8.0401947339e-20 +6.3695388753e-19 +5.1347774753e-16 5.1100000000e-04 5.1099893000e-04 0.0000e+00 1.0000e+00
       50  1    1    2    0    0 +2.1833155733e-02 +1.1654223767e-02 +2.2919999751e+01 2.2920013657e+01 4.9935713700e-03 0.0000e+00 0.0000e+00
       11  1    1    2    0    0 -1.8147610249e-02 +1.7543110392e-02 +6.1731067458e-01 6.1782669621e-01 5.1099893000e-04 0.0000e+00 1.0000e+00
<vert_displacement>
408.79779224869060
</vert_displacement>
</event>
<event>
 4   1200 +8.5212000e+10 1.23952300e-02 7.81665300e-03            nan
       50 -1    0    0    0    0 +1.2320983167e-02 +8.3622430469e-03 +3.8046029525e+00 3.8046353696e+00 4.9935713700e-03 0.0000e+00 0.0000e+00
       11 -1    0    0    0    0 +4.3818504961e-19 +2.9739590053e-19 +1.3530739478e-16 5.1100000000e-04 5.1099893000e-04 0.0000e+00 1.0000e+00
       50  1    1    2    0    0 +1.1449303170e-02 -3.2604250043e-03 +3.6741764021e+00 3.6741990810e+00 4.9935713700e-03 0.0000e+00 0.0000e+00
       11  1    1    2    0    0 +8.7167999655e-04 +1.1622668051e-02 +1.3042655039e-01 1.3094728865e-01 5.1099893000e-04 0.0000e+00 1.0000e+00
<vert_displacement>
162.92132050648956
</vert_displacement>
</event>
<event>
 4   1200 +8.5212000e+10 2.90616300e-02 7.81665300e-03            nan
       50 -1    0    0    0    0 +3.9898293822e-02 +1.5396205677e-02 +1.9186581427e+01 1.9186629738e+01 4.9935713700e-03 0.0000e+00 0.0000e+00
       11 -1    0    0    0    0 +5.8871629202e-18 +2.2717756197e-18 +2.8310616802e-15 5.1100000000e-04 5.1099893000e-04 0.0000e+00 1.0000e+00
       50  1    1    2    0    0 +6.1697145300e-02 -1.5669923720e-03 +1.8347816972e+01 1.8347921451e+01 4.9935713700e-03 0.0000e+00 0.0000e+00
       11  1    1    2    0    0 -2.1798851478e-02 +1.6963198049e-02 +8.3876445531e-01 8.3921928757e-01 5.1099893000e-04 0.0000e+00 1.0000e+00
<vert_displacement>
269.97323342750076
</vert_displacement>
</event>
<event>
 4   1200 +8.5212000e+10 2.72465700e-02 7.81665300e-03            nan
       50 -1    0    0    0    0 +8.2901261410e-03 -9.9182457962e-03 +8.2821298453e+00 8.2821414385e+00 4.9935713700e-03 0.0000e+00 0.0000e+00
       11 -1    0    0    0    0 +3.0560573392e-19 -3.6562444698e-19 +3.0531095990e-16 5.1100000000e-04 5.1099893000e-04 0.0000e+00 1.0000e+00
       50  1    1    2    0    0 +4.5024010501e-03 -3.5605621380e-02 +7.5073832347e+00 7.5074706792e+00 4.9935713700e-03 0.0000e+00 0.0000e+00
       11  1    1    2    0    0 +3.7877250910e-03 +2.5687375584e-02 +7.7474661063e-01 7.7518175929e-01 5.1099893000e-04 0.0000e+00 1.0000e+00
<vert_displacement>
159.16092708479229
</vert_displacement>
</event>
<event>
 4   1200 +8.5212000e+10 4.75281300e-02 7.81665300e-03            nan
       50 -1    0    0    0    0 +2.0899404200e-02 -1.0729054452e-02 +8.8302059154e+00 8.8302385779e+00 4.9935713700e-03 0.0000e+00 0.0000e+00
       11 -1    0    0    0    0 +1.0182243389e-18 -5.2272228776e-19 +4.3020989951e-16 5.1100000000e-04 5.1099893000e-04 0.0000e+00 1.0000e+00
       50  1    1    2    0    0 +5.8195923070e-02 -1.2130679149e-02 +4.7966669850e+00 4.7970379422e+00 4.9935713700e-03 0.0000e+00 0.0000e+00
       11  1    1    2    0    0 -3.7296518870e-02 +1.4016246968e-03 +4.0335389305e+00 4.0337116356e+00 5.1099893000e-04 0.0000e+00 1.0000e+00
<vert_displacement>
131.55752785470310
</vert_displacement>
</event>
<event>
 4   1200 +8.5212000e+10 6.72364100e-03 7.81665300e-03            nan
       50 -1    0    0    0    0 -3.2152715496e-02 -4.1423980298e-03 +1.9650669767e+01 1.9650697142e+01 4.9935713700e-03 0.0000e+00 0.0000e+00
       11 -1    0    0    0    0 -4.4505739699e-18 -5.7339010282e-19 +2.7200427089e-15 5.1100000000e-04 5.1099893000e-04 0.0000e+00 1.0000e+00
       50  1    1    2    0    0 -3.3221943261e-02 -8.5037366776e-03 +1.9630811255e+01 1.9630841843e+01 4.9935713700e-03 0.0000e+00 0.0000e+00
       11  1    1    2    0    0 +1.0692277652e-03 +4.3613386478e-03 +1.9858512354e-02 2.0366299508e-02 5.1099893000e-04 0.0000e+00 1.0000e+00
<vert_displacement>
208.63202292999080
</vert_displacement>
</event>
<event>
 4   1200 +8.5212000e+10 6.68580600e-03 7.81665300e-03            nan
       50 -1    0    0    0    0 +1.7910872494e-03 +3.0112272497e-03 +7.3422153430e+00 7.3422178770e+00 4.9935713700e-03 0.0000e+00 0.0000e+00
       11 -1    0    0    0    0 +0.0000000000e+00 +0.0000000000e+00 +0.0000000000e+00 5.1100000000e-04 5.1099893000e-04 0.0000e+00 1.0000e+00
       50  1    1    2    0    0 +5.5523545539e-03 +6.4075314782e-04 +7.3228238709e+00 7.3228277065e+00 4.9935713700e-03 0.0000e+00 0.0000e+00
       11  1    1    2    0    0 -3.7612673045e-03 +2.3704741019e-03 +1.9391472020e-02 1.9901170473e-02 5.1099893000e-04 0.0000e+00 1.0000e+00
<vert_displacement>
211.19306405882023
</vert_displacement>
</event>
<event>
 4   1200 +8.5212000e+10 1.47495000e-02 7.81665300e-03            nan
       50 -1    0    0    0    0 -1.0860969691e-02 -3.5007575023e-02 +1.4580363668e+01 1.4580410595e+01 4.9935713700e-03 0.0000e+00 0.0000e+00
       11 -1    0    0    0    0 +3.8765945740e-19 +1.2495217209e-18 -5.2041539836e-16 5.1100000000e-04 5.1099893000e-04 0.0000e+00 1.0000e+00
       50  1    1    2    0    0 +2.9875602639e-03 -3.6728537504e-02 +1.4389391169e+01 1.4389439220e+01 4.9935713700e-03 0.0000e+00 0.0000e+00
       11  1    1    2    0    0 -1.3848529955e-02 +1.7209624804e-03 +1.9097249910e-01 1.9148237523e-01 5.1099893000e-04 0.0000e+00 1.0000e+00
<vert_displacement>
53.618630320272132
</vert_displacement>
</event>
<event>
 4   1200 +8.5212000e+10 1.43056200e-02 7.81665300e-03            nan
       50 -1    0    0    0    0 -9.7897014434e-02 -3.6994352906e-02 +2.8723019809e+01 2.8723210898e+01 4.9935713700e-03 0.0000e+00 0.0000e+00
       11 -1    0    0    0    0 -3.1690676663e-18 -1.1975606029e-18 +9.2980561135e-16 5.1100000000e-04 5.1099893000e-04 0.0000e+00 1.0000e+00
       50  1    1    2    0    0 -1.0331883063e-01 -4.8742042122e-02 +2.8546044584e+01 2.8546273608e+01 4.9935713700e-03 0.0000e+00 0.0000e+00
       11  1    1    2    0    0 +5.4218161964e-03 +1.1747689217e-02 +1.7697522508e-01 1.7744829023e-01 5.1099893000e-04 0.0000e+00 1.0000e+00
<vert_displacement>
21.602105313082298
</vert_displacement>
</event>
<event>
 4   1200 +8.5212000e+10 1.56114700e-02 7.81665300e-03            nan
       50 -1    0    0    0    0 -1.6697949064e-02 +5.3125559984e-02 +2.2138210090e+01 2.2138280694e+01 4.9935713700e-03 0.0000e+00 0.0000e+00
       11 -1    0    0    0    0 -8.6879555159e-19 +2.7641269004e-18 +1.1518527438e-15 5.1100000000e-04 5.1099893000e-04 0.0000e+00 1.0000e+00
       50  1    1    2    0    0 -9.9531840507e-03 +6.5853002310e-02 +2.1921992714e+01 2.1922094452e+01 4.9935713700e-03 0.0000e+00 0.0000e+00
       11  1    1    2    0    0 -6.7447650137e-03 -1.2727442325e-02 +2.1621737653e-01 2.1669724197e-01 5.1099893000e-04 0.0000e+00 1.0000e+00
<vert_displacement>
383.78851838250648
</vert_displacement>
</event>
<event>
 4   1200 +8.5212000e+10 4.27206900e-02 7.81665300e-03            nan
       50 -1    0    0    0    0 -2.2072967147e-03 -5.8958269654e-03 +7.2177977283e+00 7.2178022012e+00 4.9935713700e-03 0.0000e+00 0.0000e+00
       11 -1    0    0    0    0 -8.7002142649e-20 -2.3238814032e-19 +2.8449454184e-16 5.1100000000e-04 5.1099893000e-04 0.0000e+00 1.0000e+00
       50  1    1    2    0    0 +3.6002289626e-02 +1.6901043238e-02 +4.1364402295e+00 4.1366344433e+00 4.9935713700e-03 0.0000e+00 0.0000e+00
       11  1    1    2    0    0 -3.8209586340e-02 -2.2796870203e-02 +3.0813574989e+00 3.0816787579e+00 5.1099893000e-04 0.0000e+00 1.0000e+00
<vert_displacement>
234.69719277425753
</vert_displacement>
</event>
<event>
 4   1200 +8.5212000e+10 3.89564000e-02 7.81665300e-03            nan
       50 -1    0    0    0    0 -5.0733648292e-02 +5.6231078009e-02 +2.7665776138e+01 2.7665880251e+01 4.9935713700e-03 0.0000e+00 0.0000e+00
       11 -1    0    0    0    0 -5.3188548296e-18 +5.8951987668e-18 +2.9004467839e-15 5.1100000000e-04 5.1099893000e-04 0.0000e+00 1.0000e+00
       50  1    1    2    0    0 -3.3670732764e-02 +8.9007094618e-02 +2.6118577505e+01 2.6118751344e+01 4.9935713700e-03 0.0000e+00 0.0000e+00
       11  1    1    2    0    0 -1.7062915527e-02 -3.2776016610e-02 +1.5471986328e+00 1.5476399067e+00 5.1099893000e-04 0.0000e+00 1.0000e+00
<vert_displacement>
6.4994126081959092
</vert_displacement>
</event>
<event>
 4   1200 +8.5212000e+10 3.69611200e-02 7.81665300e-03            nan
       50 -1    0    0    0    0 +2.9707107541e-02 -1.0829012340e-02 +9.9658699847e+00 9.9659213958e+00 4.9935713700e-03 0.0000e+00 0.0000e+00
       11 -1    0    0    0    0 +6.6188599363e-19 -2.4127463715e-19 +2.2204348734e-16 5.1100000000e-04 5.1099893000e-04 0.0000e+00 1.0000e+00
       50  1    1    2    0    0 +6.1680661553e-02 -1.0021964411e-02 +8.4098908397e+00 8.4101244828e+00 4.9935713700e-03 0.0000e+00 0.0000e+00
       11  1    1    2    0    0 -3.1973554012e-02 -8.0704792876e-04 +1.5559791450e+00 1.5563079130e+00 5.1099893000e-04 0.0000e+00 1.0000e+00
<vert_displacement>
329.94206911904905
</vert_displacement>
</event>
<event>
 4   1200 +8.5212000e+10 9.74953500e-03 7.81665300e-03            nan
       50 -1    0    0    0    0 +5.0811907080e-04 -6.0180366124e-03 +1.0756344192e+01 1.0756347047e+01 4.9935713700e-03 0.0000e+00 0.0000e+00
       11 -1    0    0    0    0 +1.1144738950e-20 -1.3199553194e-19 +2.3592235554e-16 5.1100000000e-04 5.1099893000e-04 0.0000e+00 -1.0000e+00
       50  1    1    2    0    0 +3.2849908909e-03 -1.3878041188e-02 +1.0687283748e+01 1.0687294430e+01 4.9935713700e-03 0.0000e+00 0.0000e+00
       11  1    1    2    0    0 -2.7768718201e-03 +7.8600045761e-03 +6.9060444329e-02 6.9563616782e-02 5.1099893000e-04 0.0000e+00 -1.0000e+00
<vert_displacement>
95.846243409641346
</vert_displacement>
</event>
<event>
 4   1200 +8.5212000e+10 8.91624500e-03 7.81665300e-03            nan
       50 -1    0    0    0    0 +1.0056575219e-02 -4.1519475065e-03 +2.0236656889e+01 2.0236660430e+01 4.9935713700e-03 0.0000e+00 0.0000e+00
       11 -1    0    0    0    0 +5.7241316077e-19 -2.3632592049e-19 +1.1518562216e-15 5.1100000000e-04 5.1099893000e-04 0.0000e+00 1.0000e+00
       50  1    1    2    0    0 +1.1818463749e-02 -1.1307899524e-02 +2.0183122304e+01 2.0183129550e+01 4.9935713700e-03 0.0000e+00 0.0000e+00
       11  1    1    2    0    0 -1.7618885304e-03 +7.1559520179e-03 +5.3534585009e-02 5.4041880171e-02 5.1099893000e-04 0.0000e+00 1.0000e+00
<vert_displacement>
170.32509523601132
</vert_displacement>
</event>
<event>
 4   1200 +8.5212000e+10 1.86752300e-02 7.81665300e-03            nan
       50 -1    0    0    0    0 +3.7152036750e-02 +1.6013913677e-02 +1.3831733650e+01 1.3831793717e+01 4.9935713700e-03 0.0000e+00 0.0000e+00
       11 -1    0    0    0    0 +1.7146766235e-18 +7.3908958527e-19 +6.3837550851e-16 5.1100000000e-04 5.1099893000e-04 0.0000e+00 1.0000e+00
       50  1    1    2    0    0 +4.9397376596e-02 +2.7957811350e-02 +1.3507190188e+01 1.3507310371e+01 4.9935713700e-03 0.0000e+00 0.0000e+00
       11  1    1    2    0    0 -1.2245339846e-02 -1.1943897672e-02 +3.2454346232e-01 3.2499434625e-01 5.1099893000e-04 0.0000e+00 1.0000e+00
<vert_displacement>
221.88238341927610
</vert_displacement>
</event>
<event>
 4   1200 +8.5212000e+10 8.15437300e-03 7.81665300e-03            nan
       50 -1    0    0    0    0 -9.1812391433e-02 +3.3382214689e-02 +3.6705603569e+01 3.6705733914e+01 4.9935713700e-03 0.0000e+00 0.0000e+00
       11 -1    0    0    0    0 -2.0480457133e-18 +7.4465222642e-19 +8.1878658064e-16 5.1100000000e-04 5.1099893000e-04 0.0000e+00 1.0000e+00
       50  1    1    2    0    0 -8.8432309595e-02 +2.7794433539e-02 +3.6664907764e+01 3.6665025284e+01 4.9935713700e-03 0.0000e+00 0.0000e+00
       11  1    1    2    0    0 -3.3800818389e-03 +5.5877811494e-03 +4.0695805044e-02 4.1219630269e-02 5.1099893000e-04 0.0000e+00 1.0000e+00
<vert_displacement>
131.90050946523510
</vert_displacement>
</event>
<event>
 4   1200 +8.5212000e+10 5.76136400e-03 7.81665300e-03            nan
       50 -1    0    0    0    0 +2.2339435596e-02 -5.5854981956e-03 +8.8952121975e+00 8.8952434043e+00 4.9935713700e-03 0.0000e+00 0.0000e+00
       11 -1    0    0    0    0 -2.7882047221e-19 +6.9713097169e-20 -1.1102193046e-16 5.1100000000e-04 5.1099893000e-04 0.0000e+00 1.0000e+00
       50  1    1    2    0    0 +2.2619898449e-02 -2.7226076906e-03 +8.8871256254e+00 8.8871562319e+00 4.9935713700e-03 0.0000e+00 0.0000e+00
       11  1    1    2    0    0 -2.8046285306e-04 -2.8628905049e-03 +8.0865720665e-03 8.5981724307e-03 5.1099893000e-04 0.0000e+00 1.0000e+00
<vert_displacement>
330.85233562899640
</vert_displacement>
</event>
<event>
 4   1200 +8.5212000e+10 1.23397600e-02 7.81665300e-03            nan
       50 -1    0    0    0    0 +9.0158002999e-03 +2.4342238344e-03 +3.0600059374e+00 3.0600242618e+00 4.9935713700e-03 0.0000e+00 0.0000e+00
       11 -1    0    0    0    0 +1.3902059783e-18 +3.7534909987e-19 +4.7184258817e-16 5.1100000000e-04 5.1099893000e-04 0.0000e+00 1.0000e+00
       50  1    1    2    0    0 +3.2111628350e-03 +1.2227437043e-02 +2.9298173861e+00 2.9298489164e+00 4.9935713700e-03 0.0000e+00 0.0000e+00
       11  1    1    2    0    0 +5.8046374648e-03 -9.7932132086e-03 +1.3018855133e-01 1.3068634534e-01 5.1099893000e-04 0.0000e+00 1.0000e+00
<vert_displacement>
21.311931837668915
</vert_displacement>
</event>
<event>
 4   1200 +8.5212000e+10 1.01150900e-02 7.81665300e-03            nan
       50 -1    0    0    0    0 +8.8489651753e-02 -7.5552470121e-02 +3.0836898538e+01 3.0837118461e+01 4.9935713700e-03 0.0000e+00 0.0000e+00
       11 -1    0    0    0    0 +1.4137326835e-17 -1.2070450523e-17 +4.9265796009e-15 5.1100000000e-04 5.1099893000e-04 0.0000e+00 1.0000e+00
       50  1    1    2    0    0 +8.9214002041e-02 -6.6620580242e-02 +3.0761016033e+01 3.0761217949e+01 4.9935713700e-03 0.0000e+00 0.0000e+00
       11  1    1    2    0    0 -7.2435028778e-04 -8.9318898792e-03 +7.5882505789e-02 7.6411511861e-02 5.1099893000e-04 0.0000e+00 1.0000e+00
<vert_displacement>
156.42426502244609
</vert_displacement>
</event>
<event>
 4   1200 +8.5212000e+10 2.37359900e-02 7.81665300e-03            nan
       50 -1    0    0    0    0 -3.0271016473e-03 -2.9854124931e-02 +5.2354327178e+01 5.2354336015e+01 4.9935713700e-03 0.0000e+00 0.0000e+00
       11 -1    0    0    0    0 +6.4192542926e-20 +6.3308485127e-19 -1.1102228423e-15 5.1100000000e-04 5.1099893000e-04 0.0000e+00 1.0000e+00
       50  1    1    2    0    0 +6.5557511133e-03 -5.0698150898e-02 +5.1822026086e+01 5.1822051541e+01 4.9935713700e-03 0.0000e+00 0.0000e+00
       11  1    1    2    0    0 -9.5828527606e-03 +2.0844025967e-02 +5.3230109163e-01 5.3279547460e-01 5.1099893000e-04 0.0000e+00 1.0000e+00
<vert_displacement>
366.11312680879058
</vert_displacement>
</event>
<event>
 4   1200 +8.5212000e+10 2.54300500e-02 7.81665300e-03            nan
       50 -1    0    0    0    0 +3.9995513974e-02 +9.6704036291e-03 +1.6094428367e+01 1.6094481742e+01 4.9935713700e-03 0.0000e+00 0.0000e+00
       11 -1    0    0    0    0 +5.1730396649e-18 +1.2507748139e-18 +2.0816613678e-15 5.1100000000e-04 5.1099893000e-04 0.0000e+00 1.0000e+00
       50  1    1    2    0    0 +1.3486769276e-02 +9.3229131775e-03 +1.5461144797e+01 1.5461154297e+01 4.9935713700e-03 0.0000e+00 0.0000e+00
       11  1    1    2    0    0 +2.6508744698e-02 +3.4749045157e-04 +6.3328356902e-01 6.3383844488e-01 5.1099893000e-04 0.0000e+00 1.0000e+00
<vert_displacement>
335.27871274966992
</vert_displacement>
</event>
<event>
 4   1200 +8.5212000e+10 1.96835900e-02 7.81665300e-03            nan
       50 -1    0    0    0    0 -7.1700498383e-04 +6.7282183781e-03 +3.1532831275e+00 3.1532943410e+00 4.9935713700e-03 0.0000e+00 0.0000e+00
       11 -1    0    0    0    0 -9.1511663132e-20 +8.5872548669e-19 +4.0245491988e-16 5.1100000000e-04 5.1099893000e-04 0.0000e+00 1.0000e+00
       50  1    1    2    0    0 -6.1892566450e-03 -1.2350380116e-02 +2.7453795176e+00 2.7454188151e+00 4.9935713700e-03 0.0000e+00 0.0000e+00
       11  1    1    2    0    0 +5.4722516612e-03 +1.9078598494e-02 +4.0790360987e-01 4.0838652588e-01 5.1099893000e-04 0.0000e+00 1.0000e+00
<vert_displacement>
351.22058187991070
</vert_displacement>
</event>
<event>
 4   1200 +8.5212000e+10 1.75014000e-02 7.81665300e-03            nan
       50 -1    0    0    0    0 +2.0667387480e-02 -1.9376376809e-02 +7.8879666895e+00 7.8880191440e+00 4.9935713700e-03 0.0000e+00 0.0000e+00
       11 -1    0    0    0    0 -5.6359827335e-19 +5.2839249876e-19 -2.1510432369e-16 5.1100000000e-04 5.1099893000e-04 0.0000e+00 1.0000e+00
       50  1    1    2    0    0 +3.3418799533e-02 -2.8629970464e-02 +7.6022043419e+00 7.6023333446e+00 4.9935713700e-03 0.0000e+00 0.0000e+00
       11  1    1    2    0    0 -1.2751412052e-02 +9.2535936551e-03 +2.8576234765e-01 2.8619679935e-01 5.1099893000e-04 0.0000e+00 1.0000e+00
<vert_displacement>
185.34396917269621
</vert_displacement>
</event>
<event>
 4   1200 +8.5212000e+10 2.61987900e-02 7.81665300e-03            nan
       50 -1    0    0    0    0 +5.9955941924e-04 +2.0922534742e-02 +1.5565651059e+01 1.5565665933e+01 4.9935713700e-03 0.0000e+00 0.0000e+00
       11 -1    0    0    0    0 -6.9490932936e-21 -2.4249914386e-19 -1.8041107839e-16 5.1100000000e-04 5.1099893000e-04 0.0000e+00 1.0000e+00
       50  1    1    2    0    0 -1.8170769694e-02 +2.4035231294e-03 +1.4888989363e+01 1.4889001482e+01 4.9935713700e-03 0.0000e+00 0.0000e+00
       11  1    1    2    0    0 +1.8770329113e-02 +1.8519011612e-02 +6.7666169616e-01 6.7717545084e-01 5.1099893000e-04 0.0000e+00 1.0000e+00
<vert_displacement>
475.36484661846032
</vert_displacement>
</event>
<event>
 4   1200 +8.5212000e+10 1.21001500e-02 7.81665300e-03            nan
       50 -1    0    0    0    0 +1.4095229236e-02 +1.0033300590e-02 +1.0698505897e+01 1.0698521052e+01 4.9935713700e-03 0.0000e+00 0.0000e+00
       11 -1    0    0    0    0 +5.0280707698e-19 +3.5790936476e-19 +3.8163866566e-16 5.1100000000e-04 5.1099893000e-04 0.0000e+00 1.0000e+00
       50  1    1    2    0    0 +2.4298837955e-02 +1.3676424049e-02 +1.0578266215e+01 1.0578304142e+01 4.9935713700e-03 0.0000e+00 0.0000e+00
       11  1    1    2    0    0 -1.0203608719e-02 -3.6431234595e-03 +1.2023968166e-01 1.2072790955e-01 5.1099893000e-04 0.0000e+00 1.0000e+00
<vert_displacement>
246.23396408906544
</vert_displacement>
</event>
<event>
 4   1200 +8.5212000e+10 1.84760600e-02 7.81665300e-03            nan
       50 -1    0    0    0    0 +7.7120102423e-03 +4.4429722152e-02 +2.7196717742e+01 2.7196755585e+01 4.9935713700e-03 0.0000e+00 0.0000e+00
       11 -1    0    0    0    0 +7.1227766180e-19 +4.1035083739e-18 +2.5118761404e-15 5.1100000000e-04 5.1099893000e-04 0.0000e+00 1.0000e+00
       50  1    1    2    0    0 +8.5504558596e-03 +2.6153766885e-02 +2.6883512873e+01 2.6883527418e+01 4.9935713700e-03 0.0000e+00 0.0000e+00
       11  1    1    2    0    0 -8.3844561725e-04 +1.8275955266e-02 +3.1320486924e-01 3.1373916678e-01 5.1099893000e-04 0.0000e+00 1.0000e+00
<vert_displacement>
52.362469290350404
</vert_displacement>
</event>
<event>
 4   1200 +8.5212000e+10 2.31632000e-02 7.81665300e-03            nan
       50 -1    0    0    0    0 -1.0195149133e-01 -1.1818046008e-03 +4.4722175308e+01 4.4722291810e+01 4.9935713700e-03 0.0000e+00 0.0000e+00
       11 -1    0    0    0    0 -4.7771263134e-18 -5.5375647596e-20 +2.0955405131e-15 5.1100000000e-04 5.1099893000e-04 0.0000e+00 1.0000e+00
       50  1    1    2    0    0 -7.8382822395e-02 -4.1998518074e-03 +4.4215901011e+01 4.4215970968e+01 4.9935713700e-03 0.0000e+00 0.0000e+00
       11  1    1    2    0    0 -2.3568668934e-02 +3.0180472066e-03 +5.0627429679e-01 5.0683184142e-01 5.1099893000e-04 0.0000e+00 1.0000e+00
<vert_displacement>
178.79082532555225
</vert_displacement>
</event>
<event>
 4   1200 +8.5212000e+10 6.31021400e-02 7.81665300e-03            nan
       50 -1    0    0    0    0 -6.3662022631e-02 -3.2130746935e-02 +1.9186061933e+01 1.9186195107e+01 4.9935713700e-03 0.0000e+00 0.0000e+00
       11 -1    0    0    0    0 -3.8219933404e-18 -1.9289915044e-18 +1.1518484319e-15 5.1100000000e-04 5.1099893000e-04 0.0000e+00 1.0000e+00
       50  1    1    2    0    0 -1.0353918032e-01 +1.8331047821e-03 +1.3800535655e+01 1.3800925078e+01 4.9935713700e-03 0.0000e+00 0.0000e+00
       11  1    1    2    0    0 +3.9877157688e-02 -3.3963851717e-02 +5.3855262789e+00 5.3857810290e+00 5.1099893000e-04 0.0000e+00 1.0000e+00
<vert_displacement>
38.105527510431585
</vert_displacement>
</event>
<event>
 4   1200 +8.5212000e+10 2.65004600e-02 7.81665300e-03            nan
       50 -1    0    0    0    0 +5.0367413160e-02 +3.6113815632e-02 +1.5495817995e+01 1.5495942738e+01 4.9935713700e-03 0.0000e+00 0.0000e+00
       11 -1    0    0    0    0 -1.0374800274e-18 -7.4388101513e-19 -3.1918656666e-16 5.1100000000e-04 5.1099893000e-04 0.0000e+00 1.0000e+00
       50  1    1    2    0    0 +2.6825876751e-02 +4.9471273683e-02 +1.4801956935e+01 1.4802064758e+01 4.9935713700e-03 0.0000e+00 0.0000e+00
       11  1    1    2    0    0 +2.3541536410e-02 -1.3357458052e-02 +6.9386105944e-01 6.9438898072e-01 5.1099893000e-04 0.0000e+00 1.0000e+00
<vert_displacement>
305.78160475642346
</vert_displacement>
</event>
<event>
 4   1200 +8.5212000e+10 5.58767900e-03 7.81665300e-03            nan
       50 -1    0    0    0    0 +1.6273660986e-02 +2.1618562476e-02 +1.1534373401e+01 1.1534406221e+01 4.9935713700e-03 0.0000e+00 0.0000e+00
       11 -1    0    0    0    0 +4.9928726169e-19 +6.6327256474e-19 +3.5388261531e-16 5.1100000000e-04 5.1099893000e-04 0.0000e+00 1.0000e+00
       50  1    1    2    0    0 +1.8668499271e-02 +2.2320795470e-02 +1.1528214045e+01 1.1528251851e+01 4.9935713700e-03 0.0000e+00 0.0000e+00
       11  1    1    2    0    0 -2.3948382849e-03 -7.0223299452e-04 +6.1593556667e-03 6.6653704866e-03 5.1099893000e-04 0.0000e+00 1.0000e+00
<vert_displacement>
228.65687646120858
</vert_displacement>
</event>
<event>
 4   1200 +8.5212000e+10 1.46382900e-02 7.81665300e-03            nan
       50 -1    0    0    0    0 -2.5351399327e-02 +1.0718007867e-02 +9.0472984610e+00 9.0473417061e+00 4.9935713700e-03 0.0000e+00 0.0000e+00
       11 -1    0    0    0    0 -5.3080365318e-18 +2.2441198048e-18 +1.8943092697e-15 5.1100000000e-04 5.1099893000e-04 0.0000e+00 1.0000e+00
       50  1    1    2    0    0 -3.3553678193e-02 -1.4036891030e-04 +8.8580400247e+00 8.8581049826e+00 4.9935713700e-03 0.0000e+00 0.0000e+00
       11  1    1    2    0    0 +8.2022788666e-03 +1.0858376778e-02 +1.8925843632e-01 1.8974772347e-01 5.1099893000e-04 0.0000e+00 1.0000e+00
<vert_displacement>
129.59543236853921
</vert_displacement>
</event>
<event>
 4   1200 +8.5212000e+10 5.91461600e-03 7.81665300e-03            nan
       50 -1    0    0    0    0 +2.4002808903e-02 -2.0834810612e-02 +9.5519460319e+00 9.5520002175e+00 4.9935713700e-03 0.0000e+00 0.0000e+00
       11 -1    0    0    0    0 +1.9354458679e-18 -1.6799970483e-18 +7.7021295937e-16 5.1100000000e-04 5.1099893000e-04 0.0000e+00 1.0000e+00
       50  1    1    2    0    0 +2.2844723959e-02 -1.7853218881e-02 +9.5421140490e+00 9.5421594033e+00 4.9935713700e-03 0.0000e+00 0.0000e+00
       11  1    1    2    0    0 +1.1580849435e-03 -2.9815917302e-03 +9.8319828666e-03 1.0351814188e-02 5.1099893000e-04 0.0000e+00 1.0000e+00
<vert_displacement>
483.12967258035400
</vert_displacement>
</event>
<event>
 4   1200 +8.5212000e+10 1.75950300e-02 7.81665300e-03            nan
       50 -1    0    0    0    0 +2.5052458064e-02 +4.0090994621e-03 +7.7758256130e+00 7.7758686073e+00 4.9935713700e-03 0.0000e+00 0.0000e+00
       11 -1    0    0    0    0 +5.3654111662e-19 +8.5861702532e-20 +1.6653256724e-16 5.1100000000e-04 5.1099893000e-04 0.0000e+00 1.0000e+00
       50  1    1    2    0    0 +1.9755909858e-02 -1.2437355034e-02 +7.4865097470e+00 7.4865478100e+00 4.9935713700e-03 0.0000e+00 0.0000e+00
       11  1    1    2    0    0 +5.2965482067e-03 +1.6446454496e-02 +2.8931586598e-01 2.8983179729e-01 5.1099893000e-04 0.0000e+00 1.0000e+00
<vert_displacement>
415.41863077723434
</vert_displacement>
</event>
<event>
 4   1200 +8.5212000e+10 1.27183700e-02 7.81665300e-03            nan
       50 -1    0    0    0    0 -2.3263925029e-02 +2.1256665188e-02 +1.9696139504e+01 1.9696165346e+01 4.9935713700e-03 0.0000e+00 0.0000e+00
       11 -1    0    0    0    0 +2.4095664062e-18 -2.2016640047e-18 -2.0400321967e-15 5.1100000000e-04 5.1099893000e-04 0.0000e+00 1.0000e+00
       50  1    1    2    0    0 -1.1439718852e-02 +2.0245660375e-02 +1.9561351227e+01 1.9561365687e+01 4.9935713700e-03 0.0000e+00 0.0000e+00
       11  1    1    2    0    0 -1.1824206177e-02 +1.0110048128e-03 +1.3478827665e-01 1.3531065969e-01 5.1099893000e-04 0.0000e+00 1.0000e+00
<vert_displacement>
32.761682778856795
</vert_displacement>
</event>
<event>
 4   1200 +8.5212000e+10 6.80964100e-03 7.81665300e-03            nan
       50 -1    0    0    0    0 +5.8116250890e-03 -1.1984524023e-03 +3.4104171773e+00 3.4104259954e+00 4.9935713700e-03 0.0000e+00 0.0000e+00
       11 -1    0    0    0    0 -3.6064466495e-19 +7.4370844382e-20 -2.1163594372e-16 5.1100000000e-04 5.1099893000e-04 0.0000e+00 1.0000e+00
       50  1    1    2    0    0 +7.6766309155e-03 -5.4126127964e-03 +3.3893037160e+00 3.3893204100e+00 4.9935713700e-03 0.0000e+00 0.0000e+00
       11  1    1    2    0    0 -1.8650058264e-03 +4.2141603940e-03 +2.1113461340e-02 2.1616585397e-02 5.1099893000e-04 0.0000e+00 1.0000e+00
<vert_displacement>
113.88949407775138
</vert_displacement>
</event>
<event>
 4   1200 +8.5212000e+10 7.19232800e-03 7.81665300e-03            nan
       50 -1    0    0    0    0 +6.9128038437e-02 -2.7719197357e-02 +5.4585554713e+01 5.4585605752e+01 4.9935713700e-03 0.0000e+00 0.0000e+00
       11 -1    0    0    0    0 -7.2584918870e-18 +2.9105349100e-18 -5.7315210295e-15 5.1100000000e-04 5.1099893000e-04 0.0000e+00 1.0000e+00
       50  1    1    2    0    0 +6.3930764199e-02 -2.8061285746e-02 +5.4559331185e+01 5.4559376086e+01 4.9935713700e-03 0.0000e+00 0.0000e+00
       11  1    1    2    0    0 +5.1972742383e-03 +3.4208838872e-04 +2.6223527932e-02 2.6740666055e-02 5.1099893000e-04 0.0000e+00 1.0000e+00
<vert_displacement>
250.72475764429237
</vert_displacement>
</event>
<event>
 4   1200 +8.5212000e+10 2.87866600e-02 7.81665300e-03            nan
       50 -1    0    0    0    0 -4.0898186632e-02 -2.0332039127e-02 +1.5645351244e+01 1.5645418708e+01 4.9935713700e-03 0.0000e+00 0.0000e+00
       11 -1    0    0    0    0 +5.0788473831e-19 +2.5248875858e-19 -1.9428820142e-16 5.1100000000e-04 5.1099893000e-04 0.0000e+00 1.0000e+00
       50  1    1    2    0    0 -3.4050349569e-02 +8.7092278663e-03 +1.4814776718e+01 1.4814819250e+01 4.9935713700e-03 0.0000e+00 0.0000e+00
       11  1    1    2    0    0 -6.8478370637e-03 -2.9041266993e-02 +8.3057452626e-01 8.3111045768e-01 5.1099893000e-04 0.0000e+00 1.0000e+00
<vert_displacement>
488.24235225766984
</vert_displacement>
</event>
<event>
 4   1200 +8.5212000e+10 1.13030200e-02 7.81665300e-03            nan
       50 -1    0    0    0    0 +3.0477679187e-02 -7.2483004698e-03 +1.5023197913e+01 1.5023231407e+01 4.9935713700e-03 0.0000e+00 0.0000e+00
       11 -1    0    0    0    0 +1.1402335789e-18 -2.7117404626e-19 +5.6204918420e-16 5.1100000000e-04 5.1099893000e-04 0.0000e+00 1.0000e+00
       50  1    1    2    0    0 +2.2804490428e-02 -1.4059164388e-02 +1.4921913348e+01 1.4921938232e+01 4.9935713700e-03 0.0000e+00 0.0000e+00
       11  1    1    2    0    0 +7.6731887592e-03 +6.8108639179e-03 +1.0128456542e-01 1.0180417479e-01 5.1099893000e-04 0.0000e+00 1.0000e+00
<vert_displacement>
141.95765127057263
</vert_displacement>
</event>
<event>
 4   1200 +8.5212000e+10 7.36593700e-03 7.81665300e-03            nan
       50 -1    0    0    0    0 +7.8374277858e-03 -8.4669387903e-03 +1.4285538682e+01 1.4285544213e+01 4.9935713700e-03 0.0000e+00 0.0000e+00
       11 -1    0    0    0    0 +3.5023122538e-19 -3.7836219086e-19 +6.3837803096e-16 5.1100000000e-04 5.1099893000e-04 0.0000e+00 1.0000e+00
       50  1    1    2    0    0 +2.4106708969e-03 -8.6560922762e-03 +1.4256792463e+01 1.4256796169e+01 4.9935713700e-03 0.0000e+00 0.0000e+00
       11  1    1    2    0    0 +5.4267568889e-03 +1.8915348587e-04 +2.8746218831e-02 2.9259044522e-02 5.1099893000e-04 0.0000e+00 1.0000e+00
<vert_displacement>
469.71905649636074
</vert_displacement>
</event>
<event>
 4   1200 +8.5212000e+10 2.40740500e-02 7.81665300e-03            nan
       50 -1    0    0    0    0 +1.4775780483e-02 -8.5123744373e-03 +5.0668881243e+00 5.0669192794e+00 4.9935713700e-03 0.0000e+00 0.0000e+00
       11 -1    0    0    0    0 -3.2375529905e-19 +1.8651646420e-19 -1.1102167373e-16 5.1100000000e-04 5.1099893000e-04 0.0000e+00 1.0000e+00
       50  1    1    2    0    0 -6.9798200977e-03 +5.0389774221e-03 +4.4483412356e+00 4.4483523684e+00 4.9935713700e-03 0.0000e+00 0.0000e+00
       11  1    1    2    0    0 +2.1755600581e-02 -1.3551351859e-02 +6.1854688872e-01 6.1907791105e-01 5.1099893000e-04 0.0000e+00 1.0000e+00
<vert_displacement>
151.66234431313501
</vert_displacement>
</event>
<event>
 4   1200 +8.5212000e+10 1.15103100e-02 7.81665300e-03            nan
       50 -1    0    0    0    0 -2.9592425978e-03 -3.0011793620e-02 +1.8155238022e+01 1.8155263756e+01 4.9935713700e-03 0.0000e+00 0.0000e+00
       11 -1    0    0    0    0 -1.0857741653e-19 -1.1011611617e-18 +6.6613289578e-16 5.1100000000e-04 5.1099893000e-04 0.0000e+00 1.0000e+00
       50  1    1    2    0    0 -9.2546147201e-03 -3.8064934128e-02 +1.8049366151e+01 1.8049409353e+01 4.9935713700e-03 0.0000e+00 0.0000e+00
       11  1    1    2    0    0 +6.2953721223e-03 +8.0531405077e-03 +1.0587187090e-01 1.0636540297e-01 5.1099893000e-04 0.0000e+00 1.0000e+00
<vert_displacement>
154.90949663488021
</vert_displacement>
</event>
<event>
 4   1200 +8.5212000e+10 6.12488300e-03 7.81665300e-03            nan
       50 -1    0    0    0    0 -5.3960204644e-02 +3.8355491867e-02 +2.7059141942e+01 2.7059223389e+01 4.9935713700e-03 0.0000e+00 0.0000e+00
       11 -1    0    0    0    0 -2.4353488622e-18 +1.7310720760e-18 +1.2212416720e-15 5.1100000000e-04 5.1099893000e-04 0.0000e+00 1.0000e+00
       50  1    1    2    0    0 -5.5662466121e-02 +3.5240209628e-02 +2.7046829419e+01 2.7046910115e+01 4.9935713700e-03 0.0000e+00 0.0000e+00
       11  1    1    2    0    0 +1.7022614772e-03 +3.1152822386e-03 +1.2312522952e-02 1.2824274596e-02 5.1099893000e-04 0.0000e+00 1.0000e+00
<vert_displacement>
408.11127379511652
</vert_displacement>
</event>
<event>
 4   1200 +8.5212000e+10 4.99392800e-03 7.81665300e-03            nan
       50 -1    0    0    0    0 -1.1181615897e-02 +1.0285599557e-02 +7.9114688519e+00 7.9114850156e+00 4.9935713700e-03 0.0000e+00 0.0000e+00
       11 -1    0    0    0    0 +8.9243847560e-19 -8.2092471022e-19 -6.3143818096e-16 5.1100000000e-04 5.1099893000e-04 0.0000e+00 1.0000e+00
       50  1    1    2    0    0 -1.1196359304e-02 +1.0227780373e-02 +7.9114654236e+00 7.9114815332e+00 4.9935713700e-03 0.0000e+00 0.0000e+00
       11  1    1    2    0    0 +1.4743407288e-05 +5.7819183985e-05 +3.4282466658e-06 5.1448234706e-04 5.1099893000e-04 0.0000e+00 1.0000e+00
<vert_displacement>
237.81051377637147
</vert_displacement>
</event>
<event>
 4   1200 +8.5212000e+10 1.19131800e-02 7.81665300e-03            nan
       50 -1    0    0    0    0 +1.0949189233e-01 -6.2543926877e-02 +3.8491038397e+01 3.8491245265e+01 4.9935713700e-03 0.0000e+00 0.0000e+00
       11 -1    0    0    0    0 -5.4477771403e-18 +3.1118776728e-18 -1.9151244409e-15 5.1100000000e-04 5.1099893000e-04 0.0000e+00 1.0000e+00
       50  1    1    2    0    0 +9.9504664139e-02 -6.7221523614e-02 +3.8376244561e+01 3.8376432760e+01 4.9935713700e-03 0.0000e+00 0.0000e+00
       11  1    1    2    0    0 +9.9872281943e-03 +4.6775967378e-03 +1.1479383675e-01 1.1532350461e-01 5.1099893000e-04 0.0000e+00 1.0000e+00
<vert_displacement>
375.41948543131599
</vert_displacement>
</event>
<event>
 4   1200 +8.5212000e+10 8.87559400e-03 7.81665300e-03            nan
       50 -1    0    0    0    0 +3.2528817312e-02 +3.3566755916e-02 +1.6223444795e+01 1.6223512899e+01 4.9935713700e-03 0.0000e+00 0.0000e+00
       11 -1    0    0    0    0 -2.9773330343e-18 -3.0723346098e-18 -1.4849171322e-15 5.1100000000e-04 5.1099893000e-04 0.0000e+00 1.0000e+00
       50  1    1    2    0    0 +2.7241729198e-02 +3.8653213374e-02 +1.6170589109e+01 1.6170659023e+01 4.9935713700e-03 0.0000e+00 0.0000e+00
       11  1    1    2    0    0 +5.2870881144e-03 -5.0864574575e-03 +5.2855686036e-02 5.3364876243e-02 5.1099893000e-04 0.0000e+00 1.0000e+00
<vert_displacement>
396.14701780076001
</vert_displacement>
</event>
<event>
 4   1200 +8.5212000e+10 2.04901400e-02 7.81665300e-03            nan
       50 -1    0    0    0    0 +5.9234456704e-03 -7.8822894663e-03 +4.7805786087e+00 4.7805913847e+00 4.9935713700e-03 0.0000e+00 0.0000e+00
       11 -1    0    0    0    0 -6.1043808013e-19 +8.1230586327e-19 -4.9266041932e-16 5.1100000000e-04 5.1099893000e-04 0.0000e+00 1.0000e+00
       50  1    1    2    0    0 +1.6079735948e-02 -2.3939865753e-02 +4.3562396099e+00 4.3563379288e+00 4.9935713700e-03 0.0000e+00 0.0000e+00
       11  1    1    2    0    0 -1.0156290277e-02 +1.6057576287e-02 +4.2433899883e-01 4.2476445594e-01 5.1099893000e-04 0.0000e+00 1.0000e+00
<vert_displacement>
136.72933751599277
</vert_displacement>
</event>
<event>
 4   1200 +8.5212000e+10 7.33409700e-03 7.81665300e-03            nan
       50 -1    0    0    0    0 -8.8964719509e-03 -5.3950535550e-03 +5.6069633123e+00 5.6069751895e+00 4.9935713700e-03 0.0000e+00 0.0000e+00
       11 -1    0    0    0    0 +3.0827451999e-19 +1.8694574143e-19 -1.9428869480e-16 5.1100000000e-04 5.1099893000e-04 0.0000e+00 1.0000e+00
       50  1    1    2    0    0 -9.0788135807e-03 -1.0734450372e-02 +5.5785788747e+00 5.5785988250e+00 4.9935713700e-03 0.0000e+00 0.0000e+00
       11  1    1    2    0    0 +1.8234162982e-04 +5.3393968173e-03 +2.8384437619e-02 2.8887364465e-02 5.1099893000e-04 0.0000e+00 1.0000e+00
<vert_displacement>
276.53992104129378
</vert_displacement>
</event>
<event>
 4   1200 +8.5212000e+10 3.03456400e-02 7.81665300e-03            nan
       50 -1    0    0    0    0 -3.3742445498e-02 -1.4083276141e-02 +1.8449405014e+01 1.8449441921e+01 4.9935713700e-03 0.0000e+00 0.0000e+00
       11 -1    0    0    0    0 -1.5990208608e-18 -6.6739241941e-19 +8.7429891493e-16 5.1100000000e-04 5.1099893000e-04 0.0000e+00 1.0000e+00
       50  1    1    2    0    0 -2.1229451887e-03 -1.3246933114e-02 +1.7526575610e+01 1.7526581456e+01 4.9935713700e-03 0.0000e+00 0.0000e+00
       11  1    1    2    0    0 -3.1619500309e-02 -8.3634302730e-04 +9.2282940377e-01 9.2337146472e-01 5.1099893000e-04 0.0000e+00 1.0000e+00
<vert_displacement>
443.02777031505758
</vert_displacement>
</event>
<event>
 4   1200 +8.5212000e+10 6.11923000e-03 7.81665300e-03            nan
       50 -1    0    0    0    0 -1.9687911519e-02 +5.0073616519e-02 +1.9301055795e+01 1.9301131437e+01 4.9935713700e-03 0.0000e+00 0.0000e+00
       11 -1    0    0    0    0 -3.9919606015e-18 +1.0153027360e-17 +3.9135209556e-15 5.1100000000e-04 5.1099893000e-04 0.0000e+00 1.0000e+00
       50  1    1    2    0    0 -2.1149483366e-02 +5.3256845204e-02 +1.9288797954e+01 1.9288883717e+01 4.9935713700e-03 0.0000e+00 0.0000e+00
       11  1    1    2    0    0 +1.4615718471e-03 -3.1832286847e-03 +1.2257841328e-02 1.2758719804e-02 5.1099893000e-04 0.0000e+00 1.0000e+00
<vert_displacement>
321.24516673635395
</vert_displacement>
</event>
<event>
 4   1200 +8.5212000e+10 3.90258900e-02 7.81665300e-03            nan
       50 -1    0    0    0    0 +1.6472398762e-02 +9.1111082745e-03 +2.4000856587e+01 2.4000864488e+01 4.9935713700e-03 0.0000e+00 0.0000e+00
       11 -1    0    0    0    0 +3.4288833853e-19 +1.8965621361e-19 +4.9960020742e-16 5.1100000000e-04 5.1099893000e-04 0.0000e+00 1.0000e+00
       50  1    1    2    0    0 +3.3995516723e-02 -2.5427481263e-02 +2.2432386671e+01 2.2432427397e+01 4.9935713700e-03 0.0000e+00 0.0000e+00
       11  1    1    2    0    0 -1.7523117961e-02 +3.4538589537e-02 +1.5684699163e+00 1.5689480913e+00 5.1099893000e-04 0.0000e+00 1.0000e+00
<vert_displacement>
216.43710833020191
</vert_displacement>
</event>
<event>
 4   1200 +8.5212000e+10 1.31139100e-02 7.81665300e-03            nan
       50 -1    0    0    0    0 -5.3672971758e-04 -1.7098774190e-02 +1.1726689077e+01 1.1726702619e+01 4.9935713700e-03 0.0000e+00 0.0000e+00
       11 -1    0    0    0    0 -1.9690724963e-20 -6.2729386646e-19 +4.3021096426e-16 5.1100000000e-04 5.1099893000e-04 0.0000e+00 1.0000e+00
       50  1    1    2    0    0 -7.8680233948e-03 -7.2326830016e-03 +1.1581009155e+01 1.1581015163e+01 4.9935713700e-03 0.0000e+00 0.0000e+00
       11  1    1    2    0    0 +7.3312936772e-03 -9.8660911888e-03 +1.4567992198e-01 1.4619845556e-01 5.1099893000e-04 0.0000e+00 1.0000e+00
<vert_displacement>
331.18110372841124
</vert_displacement>
</event>
<event>
 4   1200 +8.5212000e+10 1.00799400e-02 7.81665300e-03            nan
       50 -1    0    0    0    0 -4.6480591622e-02 -6.9944268781e-02 +3.7614937055e+01 3.7615031135e+01 4.9935713700e-03 0.0000e+00 0.0000e+00
       11 -1    0    0    0    0 +4.2185730648e-18 +6.3481336622e-18 -3.4139272922e-15 5.1100000000e-04 5.1099893000e-04 0.0000e+00 1.0000e+00
       50  1    1    2    0    0 -4.7297407531e-02 -7.8513197675e-02 +3.7539749580e+01 3.7539861811e+01 4.9935713700e-03 0.0000e+00 0.0000e+00
       11  1    1    2    0    0 +8.1681590846e-04 +8.5689288949e-03 +7.5187475762e-02 7.5680323480e-02 5.1099893000e-04 0.0000e+00 1.0000e+00
<vert_displacement>
499.10091574838515
</vert_displacement>
</event>
<event>
 4   1200 +8.5212000e+10 3.06655000e-02 7.81665300e-03            nan
       50 -1    0    0    0    0 +2.6463000600e-03 -8.5609507955e-02 +3.2760807191e+01 3.2760919534e+01 4.9935713700e-03 0.0000e+00 0.0000e+00
       11 -1    0    0    0    0 +7.1743609950e-20 -2.3209518979e-18 +8.8817538429e-16 5.1100000000e-04 5.1099893000e-04 0.0000e+00 1.0000e+00
       50  1    1    2    0    0 -1.3385730271e-02 -5.7495171665e-02 +3.1839183668e+01 3.1839238786e+01 4.9935713700e-03 0.0000e+00 0.0000e+00
       11  1    1    2    0    0 +1.6032030331e-02 -2.8114336290e-02 +9.2162352249e-01 9.2219174808e-01 5.1099893000e-04 0.0000e+00 1.0000e+00
<vert_displacement>
0.58645931947821328
</vert_displacement>
</event>
<event>
 4   1200 +8.5212000e+10 1.19376800e-02 7.81665300e-03            nan
       50 -1    0    0    0    0 -4.7958428319e-03 +9.5571945798e-03 +4.6764347749e+00 4.6764496661e+00 4.9935713700e-03 0.0000e+00 0.0000e+00
       11 -1    0    0    0    0 +2.5617790712e-19 -5.1051341574e-19 -2.4979952752e-16 5.1100000000e-04 5.1099893000e-04 0.0000e+00 -1.0000e+00
       50  1    1    2    0    0 -3.3398352778e-03 -1.4446288697e-03 +4.5584089379e+00 4.5584131255e+00 4.9935713700e-03 0.0000e+00 0.0000e+00
       11  1    1    2    0    0 -1.4560075541e-03 +1.1001823450e-02 +1.1802583701e-01 1.1854754067e-01 5.1099893000e-04 0.0000e+00 -1.0000e+00
<vert_displacement>
337.51778621261332
</vert_displacement>
</event>
<event>
 4   1200 +8.5212000e+10 1.26551800e-02 7.81665300e-03            nan
       50 -1    0    0    0    0 -7.0230753666e-03 -1.8170482449e-03 +2.3578479951e+00 2.3578644425e+00 4.9935713700e-03 0.0000e+00 0.0000e+00
       11 -1    0    0    0    0 -6.5104389490e-19 -1.6844161637e-19 +2.1857412347e-16 5.1100000000e-04 5.1099893000e-04 0.0000e+00 1.0000e+00
       50  1    1    2    0    0 -1.8171399571e-02 -5.2427578643e-04 +2.2169810395e+00 2.2170611944e+00 4.9935713700e-03 0.0000e+00 0.0000e+00
       11  1    1    2    0    0 +1.1148324205e-02 -1.2927724585e-03 +1.4086695563e-01 1.4131424805e-01 5.1099893000e-04 0.0000e+00 1.0000e+00
<vert_displacement>
294.86122212044990
</vert_displacement>
</event>
<event>
 4   1200 +8.5212000e+10 2.11349000e-02 7.81665300e-03            nan
       50 -1    0    0    0    0 -9.9842152067e-02 +8.6811123342e-02 +3.5893648402e+01 3.5893892589e+01 4.9935713700e-03 0.0000e+00 0.0000e+00
       11 -1    0    0    0    0 +9.6505847802e-18 -8.3910261180e-18 -3.4694233828e-15 5.1100000000e-04 5.1099893000e-04 0.0000e+00 1.0000e+00
       50  1    1    2    0    0 -9.4168531346e-02 +1.0583593508e-01 +3.5476079761e+01 3.5476362963e+01 4.9935713700e-03 0.0000e+00 0.0000e+00
       11  1    1    2    0    0 -5.6736207213e-03 -1.9024811734e-02 +4.1756864150e-01 4.1804062592e-01 5.1099893000e-04 0.0000e+00 1.0000e+00
<vert_displacement>
334.91183346546012
</vert_displacement>
</event>
<event>
 4   1200 +8.5212000e+10 6.73679500e-03 7.81665300e-03            nan
       50 -1    0    0    0    0 -2.5113479050e-02 -6.8537884172e-02 +5.5573873895e+01 5.5573922057e+01 4.9935713700e-03 0.0000e+00 0.0000e+00
       11 -1    0    0    0    0 -2.1322346425e-18 -5.8191400188e-18 +4.7184437846e-15 5.1100000001e-04 5.1099893000e-04 0.0000e+00 1.0000e+00
       50  1    1    2    0    0 -2.0924396637e-02 -6.6788110845e-02 +5.5553862062e+01 5.5553906374e+01 4.9935713700e-03 0.0000e+00 0.0000e+00
       11  1    1    2    0    0 -4.1890824136e-03 -1.7497733274e-03 +2.0011833256e-02 2.0526682838e-02 5.1099893000e-04 0.0000e+00 1.0000e+00
<vert_displacement>
26.673079193090153
</vert_displacement>
</event>
<event>
 4   1200 +8.5212000e+10 7.96244700e-03 7.81665300e-03            nan
       50 -1    0    0    0    0 +8.1978165736e-03 -5.5545582303e-03 +4.2720532846e+00 4.2720676796e+00 4.9935713700e-03 0.0000e+00 0.0000e+00
       11 -1    0    0    0    0 -9.3207027140e-19 +6.3153872141e-19 -4.8572126842e-16 5.1100000000e-04 5.1099893000e-04 0.0000e+00 1.0000e+00
       50  1    1    2    0    0 +3.0028076046e-03 -2.0082586337e-03 +4.2340868589e+00 4.2340913446e+00 4.9935713700e-03 0.0000e+00 0.0000e+00
       11  1    1    2    0    0 +5.1950089690e-03 -3.5462995967e-03 +3.7966425665e-02 3.8487335017e-02 5.1099893000e-04 0.0000e+00 1.0000e+00
<vert_displacement>
352.76051754846412
</vert_displacement>
</event>
<event>
 4   1200 +8.5212000e+10 1.12959400e-02 7.81665300e-03            nan
       50 -1    0    0    0    0 +3.1998529500e-02 -2.0250075515e-02 +2.0415496447e+01 2.0415532178e+01 4.9935713700e-03 0.0000e+00 0.0000e+00
       11 -1    0    0    0    0 -1.5226062607e-19 +9.6357214661e-20 -9.7144347543e-17 5.1100000000e-04 5.1099893000e-04 0.0000e+00 1.0000e+00
       50  1    1    2    0    0 +3.5514578077e-02 -1.0707366691e-02 +2.0314545330e+01 2.0314579810e+01 4.9935713700e-03 0.0000e+00 0.0000e+00
       11  1    1    2    0    0 -3.5160485764e-03 -9.5427088243e-03 +1.0095111697e-01 1.0146336791e-01 5.1099893000e-04 0.0000e+00 1.0000e+00
<vert_displacement>
477.96382274931415
</vert_displacement>
</event>
<event>
 4   1200 +8.5212000e+10 3.26131000e-02 7.81665300e-03            nan
       50 -1    0    0    0    0 -2.0994031655e-02 -1.0905796525e-02 +6.1454985173e+00 6.1455460822e+00 4.9935713700e-03 0.0000e+00 0.0000e+00
       11 -1    0    0    0    0 +5.9260562207e-19 +3.0784160184e-19 -1.7347106224e-16 5.1100000000e-04 5.1099893000e-04 0.0000e+00 1.0000e+00
       50  1    1    2    0    0 -3.1422482218e-02 -3.7238186064e-02 +4.8584297836e+00 4.8586766668e+00 4.9935713700e-03 0.0000e+00 0.0000e+00
       11  1    1    2    0    0 +1.0428450563e-02 +2.6332389540e-02 +1.2870687337e+00 1.2873804154e+00 5.1099893000e-04 0.0000e+00 1.0000e+00
<vert_displacement>
125.66860748466358
</vert_displacement>
</event>
<event>
 4   1200 +8.5212000e+10 1.78969000e-02 7.81665300e-03            nan
       50 -1    0    0    0    0 -1.4673300756e-02 +3.2061709207e-02 +2.0074572183e+01 2.0074603770e+01 4.9935713700e-03 0.0000e+00 0.0000e+00
       11 -1    0    0    0    0 -1.3897019302e-18 +3.0365505288e-18 +1.9012539969e-15 5.1100000000e-04 5.1099893000e-04 0.0000e+00 1.0000e+00
       50  1    1    2    0    0 +5.5974090693e-04 +3.9948093366e-02 +1.9781267381e+01 1.9781308357e+01 4.9935713700e-03 0.0000e+00 0.0000e+00
       11  1    1    2    0    0 -1.5233041663e-02 -7.8863841589e-03 +2.9330480169e-01 2.9380641319e-01 5.1099893000e-04 0.0000e+00 1.0000e+00
<vert_displacement>
463.37425660786789
</vert_displacement>
</event>
<event>
 4   1200 +8.5212000e+10 1.77249700e-02 7.81665300e-03            nan
       50 -1    0    0    0    0 -9.0086015034e-03 -2.5208714786e-02 +1.2644819195e+01 1.2644848518e+01 4.9935713700e-03 0.0000e+00 0.0000e+00
       11 -1    0    0    0    0 -6.0804978289e-19 -1.7015020086e-18 +8.5348203753e-16 5.1100000000e-04 5.1099893000e-04 0.0000e+00 1.0000e+00
       50  1    1    2    0    0 -6.1189388218e-03 -4.1425206117e-02 +1.2355115644e+01 1.2355187615e+01 4.9935713700e-03 0.0000e+00 0.0000e+00
       11  1    1    2    0    0 -2.8896626816e-03 +1.6216491331e-02 +2.8970355156e-01 2.9017190361e-01 5.1099893000e-04 0.0000e+00 1.0000e+00
<vert_displacement>
89.911729423398782
</vert_displacement>
</event>
<event>
 4   1200 +8.5212000e+10 1.58886600e-02 7.81665300e-03            nan
       50 -1    0    0    0    0 -6.3570711712e-02 -5.9390690696e-02 +2.4593801451e+01 2.4593955827e+01 4.9935713700e-03 0.0000e+00 0.0000e+00
       11 -1    0    0    0    0 -7.4971331296e-18 -7.0041675296e-18 +2.9004395054e-15 5.1100000000e-04 5.1099893000e-04 0.0000e+00 1.0000e+00
       50  1    1    2    0    0 -4.8273182312e-02 -5.5542411875e-02 +2.4369173580e+01 2.4369285200e+01 4.9935713700e-03 0.0000e+00 0.0000e+00
       11  1    1    2    0    0 -1.5297529400e-02 -3.8482788208e-03 +2.2462787086e-01 2.2518162701e-01 5.1099893000e-04 0.0000e+00 1.0000e+00
<vert_displacement>
163.43226460434201
</vert_displacement>
</event>
<event>
 4   1200 +8.5212000e+10 3.49760500e-02 7.81665300e-03            nan
       50 -1    0    0    0    0 -1.2064106088e-03 -1.3663655305e-02 +6.7426378062e+00 6.7426536076e+00 4.9935713700e-03 0.0000e+00 0.0000e+00
       11 -1    0    0    0    0 -1.9864363206e-20 -2.2498128724e-19 +1.1102207273e-16 5.1100000000e-04 5.1099893000e-04 0.0000e+00 1.0000e+00
       50  1    1    2    0    0 +1.4996641521e-02 -4.1329678879e-02 +5.2288497620e+00 5.2290369869e+00 4.9935713700e-03 0.0000e+00 0.0000e+00
       11  1    1    2    0    0 -1.6203052130e-02 +2.7666023573e-02 +1.5137880442e+00 1.5141276206e+00 5.1099893000e-04 0.0000e+00 1.0000e+00
<vert_displacement>
458.23487092756335
</vert_displacement>
</event>
<event>
 4   1200 +8.5212000e+10 4.71344900e-02 7.81665300e-03            nan
       50 -1    0    0    0    0 -1.0296210011e-01 -6.8536828522e-02 +3.1323985424e+01 3.1324230019e+01 4.9935713700e-03 0.0000e+00 0.0000e+00
       11 -1    0    0    0    0 -4.3335203615e-18 -2.8846123145e-18 +1.3183795639e-15 5.1100000000e-04 5.1099893000e-04 0.0000e+00 1.0000e+00
       50  1    1    2    0    0 -5.8134478359e-02 -9.1972920713e-02 +2.9002381094e+01 2.9002585620e+01 4.9935713700e-03 0.0000e+00 0.0000e+00
       11  1    1    2    0    0 -4.4827621753e-02 +2.3436092191e-02 +2.3216043309e+00 2.3221553988e+00 5.1099893000e-04 0.0000e+00 1.0000e+00
<vert_displacement>
231.45522310534756
</vert_displacement>
</event>
<event>
 4   1200 +8.5212000e+10 1.37156200e-02 7.81665300e-03            nan
       50 -1    0    0    0    0 +5.4926619982e-03 +4.9430175888e-03 +7.5913656438e+00 7.5913708826e+00 4.9935713700e-03 0.0000e+00 0.0000e+00
       11 -1    0    0    0    0 -3.4139874378e-19 -3.0723536163e-19 -4.7184456193e-16 5.1100000000e-04 5.1099893000e-04 0.0000e+00 1.0000e+00
       50  1    1    2    0    0 -6.4683787904e-03 +9.6249539550e-03 +7.4281708865e+00 7.4281816169e+00 4.9935713700e-03 0.0000e+00 0.0000e+00
       11  1    1    2    0    0 +1.1961040789e-02 -4.6819363662e-03 +1.6319475735e-01 1.6370026564e-01 5.1099893000e-04 0.0000e+00 1.0000e+00
<vert_displacement>
313.20181425602840
</vert_displacement>
</event>
<event>
 4   1200 +8.5212000e+10 3.07885000e-02 7.81665300e-03            nan
       50 -1    0    0    0    0 +7.5776089418e-03 +1.7417670817e-02 +1.0480520615e+01 1.0480539017e+01 4.9935713700e-03 0.0000e+00 0.0000e+00
       11 -1    0    0    0    0 +1.1538960913e-19 +2.6523118875e-19 +1.5959429768e-16 5.1100000000e-04 5.1099893000e-04 0.0000e+00 1.0000e+00
       50  1    1    2    0    0 -2.3410589684e-02 +1.8394531756e-02 +9.4820154808e+00 9.4820635375e+00 4.9935713700e-03 0.0000e+00 0.0000e+00
       11  1    1    2    0    0 +3.0988198626e-02 -9.7686093860e-04 +9.9850513379e-01 9.9898647940e-01 5.1099893000e-04 0.0000e+00 1.0000e+00
<vert_displacement>
488.19088647337725
</vert_displacement>
</event>
<event>
 4   1200 +8.5212000e+10 4.22777600e-02 7.81665300e-03            nan
       50 -1    0    0    0    0 -9.4568525877e-03 +2.2281750665e-02 +1.0222721201e+01 1.0222751078e+01 4.9935713700e-03 0.0000e+00 0.0000e+00
       11 -1    0    0    0    0 -1.3479954526e-18 +3.1760776955e-18 +1.4571636350e-15 5.1100000000e-04 5.1099893000e-04 0.0000e+00 1.0000e+00
       50  1    1    2    0    0 -4.4449656696e-02 +3.7275865026e-02 +8.0240712922e+00 8.0242825411e+00 4.9935713700e-03 0.0000e+00 0.0000e+00
       11  1    1    2    0    0 +3.4992804109e-02 -1.4994114360e-02 +2.1986499088e+00 2.1989795366e+00 5.1099893000e-04 0.0000e+00 1.0000e+00
<vert_displacement>
183.29536143399392
</vert_displacement>
</event>
<event>
 4   1200 +8.5212000e+10 1.12080500e-02 7.81665300e-03            nan
       50 -1    0    0    0    0 +3.7341188332e-03 -1.6501778735e-02 +1.0106404238e+01 1.0106419634e+01 4.9935713700e-03 0.0000e+00 0.0000e+00
       11 -1    0    0    0    0 -3.3072788859e-19 +1.4615492122e-18 -8.9511605929e-16 5.1100000000e-04 5.1099893000e-04 0.0000e+00 1.0000e+00
       50  1    1    2    0    0 +6.1592395237e-03 -2.6066772672e-02 +1.0006883213e+01 1.0006920305e+01 4.9935713700e-03 0.0000e+00 0.0000e+00
       11  1    1    2    0    0 -2.4251206905e-03 +9.5649939378e-03 +9.9521025405e-02 1.0001032915e-01 5.1099893000e-04 0.0000e+00 1.0000e+00
<vert_displacement>
447.47540473669369
</vert_displacement>
</event>
<event>
 4   1200 +8.5212000e+10 8.00166000e-03 7.81665300e-03            nan
       50 -1    0    0    0    0 +1.7110255178e-02 +1.8688105337e-02 +1.1745393563e+01 1.1745421955e+01 4.9935713700e-03 0.0000e+00 0.0000e+00
       11 -1    0    0    0    0 +2.0216601248e-18 +2.2080908189e-18 +1.3877755516e-15 5.1100000000e-04 5.1099893000e-04 0.0000e+00 1.0000e+00
       50  1    1    2    0    0 +1.1873080153e-02 +2.2126365826e-02 +1.1707018995e+01 1.1707046990e+01 4.9935713700e-03 0.0000e+00 0.0000e+00
       11  1    1    2    0    0 +5.2371750244e-03 -3.4382604892e-03 +3.8374568395e-02 3.8885964779e-02 5.1099893000e-04 0.0000e+00 1.0000e+00
<vert_displacement>
289.76704550099453
</vert_displacement>
</event>
<event>
 4   1200 +8.5212000e+10 8.60720600e-03 7.81665300e-03            nan
       50 -1    0    0    0    0 +2.2875732755e-04 +1.9790811363e-02 +1.6476939232e+01 1.6476951876e+01 4.9935713700e-03 0.0000e+00 0.0000e+00
       11 -1    0    0    0    0 +2.7552083200e-20 +2.3836529614e-18 +1.9845222248e-15 5.1100000000e-04 5.1099893000e-04 0.0000e+00 1.0000e+00
       50  1    1    2    0    0 +4.9197743146e-03 +2.4942125897e-02 +1.6428699806e+01 1.6428720235e+01 4.9935713700e-03 0.0000e+00 0.0000e+00
       11  1    1    2    0    0 -4.6910169870e-03 -5.1513145343e-03 +4.8239426622e-02 4.8742641316e-02 5.1099893000e-04 0.0000e+00 1.0000e+00
<vert_displacement>
110.60810618268678
</vert_displacement>
</event>
<event>
 4   1200 +8.5212000e+10 1.66654500e-02 7.81665300e-03            nan
       50 -1    0    0    0    0 +6.1990763938e-02 -3.1522758350e-02 +2.1498199135e+01 2.1498312202e+01 4.9935713700e-03 0.0000e+00 0.0000e+00
       11 -1    0    0    0    0 +2.0008423989e-18 -1.0174430420e-18 +6.9388575972e-16 5.1100000000e-04 5.1099893000e-04 0.0000e+00 1.0000e+00
       50  1    1    2    0    0 +6.7730815140e-02 -4.5683182380e-02 +2.1247878081e+01 2.1248035728e+01 4.9935713700e-03 0.0000e+00 0.0000e+00
       11  1    1    2    0    0 -5.7400512022e-03 +1.4160424030e-02 +2.5032105416e-01 2.5078747391e-01 5.1099893000e-04 0.0000e+00 1.0000e+00
<vert_displacement>
304.55343335993183
</vert_displacement>
</event>
<event>
 4   1200 +8.5212000e+10 2.37998600e-02 7.81665300e-03            nan
       50 -1    0    0    0    0 +8.1349903611e-03 +6.3362172991e-03 +2.6347172044e+00 2.6347421142e+00 4.9935713700e-03 0.0000e+00 0.0000e+00
       11 -1    0    0    0    0 +1.7139570845e-19 +1.3349744802e-19 +5.5510726107e-17 5.1100000000e-04 5.1099893000e-04 0.0000e+00 1.0000e+00
       50  1    1    2    0    0 +2.1833876732e-02 -1.2355854517e-02 +1.8954348092e+00 1.8956074058e+00 4.9935713700e-03 0.0000e+00 0.0000e+00
       11  1    1    2    0    0 -1.3698886371e-02 +1.8692071816e-02 +7.3928239517e-01 7.3964570840e-01 5.1099893000e-04 0.0000e+00 1.0000e+00
<vert_displacement>
154.02032669954667
</vert_displacement>
</event>
<event>
 4   1200 +8.5212000e+10 4.23782400e-02 7.81665300e-03            nan
       50 -1    0    0    0    0 +9.2015964065e-03 +3.3429899619e-03 +1.5609406319e+01 1.5609410188e+01 4.9935713700e-03 0.0000e+00 0.0000e+00
       11 -1    0    0    0    0 +9.3261372758e-19 +3.3882363363e-19 +1.5820674989e-15 5.1100000000e-04 5.1099893000e-04 0.0000e+00 1.0000e+00
       50  1    1    2    0    0 -2.3390187757e-02 +3.0912234971e-02 +1.3623439084e+01 1.3623495150e+01 4.9935713700e-03 0.0000e+00 0.0000e+00
       11  1    1    2    0    0 +3.2591784164e-02 -2.7569245009e-02 +1.9859672349e+00 1.9864260386e+00 5.1099893000e-04 0.0000e+00 1.0000e+00
<vert_displacement>
5.7284023703648810
</vert_displacement>
</event>
<event>
 4   1200 +8.5212000e+10 7.44609400e-03 7.81665300e-03            nan
       50 -1    0    0    0    0 -1.1791639967e-01 -9.1481192595e-02 +4.0916517843e+01 4.0916790324e+01 4.9935713700e-03 0.0000e+00 0.0000e+00
       11 -1    0    0    0    0 +6.3990113510e-18 +4.9644425328e-18 -2.2204312790e-15 5.1100000000e-04 5.1099893000e-04 0.0000e+00 1.0000e+00
       50  1    1    2    0    0 -1.2275711125e-01 -8.8917384548e-02 +4.0886635406e+01 4.0886916677e+01 4.9935713700e-03 0.0000e+00 0.0000e+00
       11  1    1    2    0    0 +4.8407115859e-03 -2.5638080462e-03 +2.9882437344e-02 3.0384647141e-02 5.1099893000e-04 0.0000e+00 1.0000e+00
<vert_displacement>
9.7484911124533156
</vert_displacement>
</event>
<event>
 4   1200 +8.5212000e+10 1.69860500e-02 7.81665300e-03            nan
       50 -1    0    0    0    0 +2.4081970371e-02 -4.3905845311e-03 +1.7583220482e+01 1.7583238230e+01 4.9935713700e-03 0.0000e+00 0.0000e+00
       11 -1    0    0    0    0 +2.5659440729e-18 -4.6781862864e-19 +1.8734995385e-15 5.1100000000e-04 5.1099893000e-04 0.0000e+00 1.0000e+00
       50  1    1    2    0    0 +2.2616177968e-02 -2.0522872199e-02 +1.7321390394e+01 1.7321418037e+01 4.9935713700e-03 0.0000e+00 0.0000e+00
       11  1    1    2    0    0 +1.4657924039e-03 +1.6132287668e-02 +2.6183008753e-01 2.6233119355e-01 5.1099893000e-04 0.0000e+00 1.0000e+00
<vert_displacement>
75.403159912486515
</vert_displacement>
</event>
<event>
 4   1200 +8.5212000e+10 1.02486700e-02 7.81665300e-03            nan
       50 -1    0    0    0    0 +2.6591124516e-02 -1.6965002268e-02 +1.2162516179e+01 1.2162558104e+01 4.9935713700e-03 0.0000e+00 0.0000e+00
       11 -1    0    0    0    0 +3.4892323908e-18 -2.2261125282e-18 +1.5959402311e-15 5.1100000000e-04 5.1099893000e-04 0.0000e+00 1.0000e+00
       50  1    1    2    0    0 +2.1577664719e-02 -2.4382536987e-02 +1.2083625261e+01 1.2083670158e+01 4.9935713700e-03 0.0000e+00 0.0000e+00
       11  1    1    2    0    0 +5.0134597972e-03 +7.4175347187e-03 +7.8890917461e-02 7.9398945699e-02 5.1099893000e-04 0.0000e+00 1.0000e+00
<vert_displacement>
122.39430280193511
</vert_displacement>
</event>
<event>
 4   1200 +8.5212000e+10 7.92567700e-03 7.81665300e-03            nan
       50 -1    0    0    0    0 +4.7977004901e-02 -1.5757885149e-02 +1.7569609748e+01 1.7569683029e+01 4.9935713700e-03 0.0000e+00 0.0000e+00
       11 -1    0    0    0    0 +4.5853747649e-18 -1.5060508478e-18 +1.6792053888e-15 5.1100000000e-04 5.1099893000e-04 0.0000e+00 1.0000e+00
       50  1    1    2    0    0 +4.2083890695e-02 -1.7807071771e-02 +1.7532478960e+01 1.7532539222e+01 4.9935713700e-03 0.0000e+00 0.0000e+00
       11  1    1    2    0    0 +5.8931142066e-03 +2.0491866225e-03 +3.7130787704e-02 3.7654806815e-02 5.1099893000e-04 0.0000e+00 1.0000e+00
<vert_displacement>
378.14090874304958
</vert_displacement>
</event>
<event>
 4   1200 +8.5212000e+10 2.62354400e-02 7.81665300e-03            nan
       50 -1    0    0    0    0 -6.1681655101e-02 +1.0163042448e-02 +1.9089800126e+01 1.9089903135e+01 4.9935713700e-03 0.0000e+00 0.0000e+00
       11 -1    0    0    0    0 +4.0805052774e-18 -6.7232872195e-19 -1.2628719192e-15 5.1100000000e-04 5.1099893000e-04 0.0000e+00 1.0000e+00
       50  1    1    2    0    0 -8.4218886650e-02 +1.7064908032e-02 +1.8416874617e+01 1.8417075762e+01 4.9935713700e-03 0.0000e+00 0.0000e+00
       11  1    1    2    0    0 +2.2537231549e-02 -6.9018655847e-03 +6.7292550898e-01 6.7333837281e-01 5.1099893000e-04 0.0000e+00 1.0000e+00
<vert_displacement>
427.24081473008818
</vert_displacement>
</event>
<event>
 4   1200 +8.5212000e+10 5.47355600e-03 7.81665300e-03            nan
       50 -1    0    0    0    0 -1.1107822832e-02 -1.8405572259e-02 +1.2323269347e+01 1.2323289110e+01 4.9935713700e-03 0.0000e+00 0.0000e+00
       11 -1    0    0    0    0 -1.4760619755e-18 -2.4458227108e-18 +1.6375764696e-15 5.1100000000e-04 5.1099893000e-04 0.0000e+00 1.0000e+00
       50  1    1    2    0    0 -1.0105361853e-02 -2.0405213476e-02 +1.2318349177e+01 1.2318371235e+01 4.9935713700e-03 0.0000e+00 0.0000e+00
       11  1    1    2    0    0 -1.0024609784e-03 +1.9996412172e-03 +4.9201699585e-03 5.4288751448e-03 5.1099893000e-04 0.0000e+00 1.0000e+00
<vert_displacement>
498.01502903632144
</vert_displacement>
</event>
<event>
 4   1200 +8.5212000e+10 1.41663600e-02 7.81665300e-03            nan
       50 -1    0    0    0    0 -4.2380666331e-02 -3.0501565601e-02 +1.4014820063e+01 1.4014918223e+01 4.9935713700e-03 0.0000e+00 0.0000e+00
       11 -1    0    0    0    0 -2.1402655404e-18 -1.5403592118e-18 +7.0776226594e-16 5.1100000000e-04 5.1099893000e-04 0.0000e+00 1.0000e+00
       50  1    1    2    0    0 -5.4319503540e-02 -2.5610117305e-02 +1.3840652858e+01 1.3840784044e+01 4.9935713700e-03 0.0000e+00 0.0000e+00
       11  1    1    2    0    0 +1.1938837209e-02 -4.8914482966e-03 +1.7416720453e-01 1.7464517845e-01 5.1099893000e-04 0.0000e+00 1.0000e+00
<vert_displacement>
186.34627452932261
</vert_displacement>
</event>
<event>
 4   1200 +8.5212000e+10 3.39674900e-02 7.81665300e-03            nan
       50 -1    0    0    0    0 -1.2650881373e-02 +6.1880118183e-02 +2.7581683216e+01 2.7581755984e+01 4.9935713700e-03 0.0000e+00 0.0000e+00
       11 -1    0    0    0    0 +7.0018339397e-20 -3.4248547507e-19 -1.5265526564e-16 5.1100000000e-04 5.1099893000e-04 0.0000e+00 1.0000e+00
       50  1    1    2    0    0 +1.9441878512e-02 +7.0807613196e-02 +2.6428875651e+01 2.6428978126e+01 4.9935713700e-03 0.0000e+00 0.0000e+00
       11  1    1    2    0    0 -3.2092759885e-02 -8.9274950123e-03 +1.1528075651e+00 1.1532888574e+00 5.1099893000e-04 0.0000e+00 1.0000e+00
<vert_displacement>
250.87031932009222
</vert_displacement>
</event>
<event>
 4   1200 +8.5212000e+10 9.96033000e-03 7.81665300e-03            nan
       50 -1    0    0    0    0 -1.6036313652e-02 -5.2717814753e-04 +1.4428542681e+01 1.4428552466e+01 4.9935713700e-03 0.0000e+00 0.0000e+00
       11 -1    0    0    0    0 +6.1696714743e-19 +2.0282192336e-20 -5.5511116908e-16 5.1100000000e-04 5.1099893000e-04 0.0000e+00 1.0000e+00
       50  1    1    2    0    0 -1.3846137417e-02 -8.8806194120e-03 +1.4355498158e+01 1.4355508451e+01 4.9935713700e-03 0.0000e+00 0.0000e+00
       11  1    1    2    0    0 -2.1901762351e-03 +8.3534412645e-03 +7.3044522421e-02 7.3555014978e-02 5.1099893000e-04 0.0000e+00 1.0000e+00
<vert_displacement>
54.076451716348089
</vert_displacement>
</event>
<event>
 4   1200 +8.5212000e+10 9.06038700e-03 7.81665300e-03            nan
       50 -1    0    0    0    0 -8.3897516086e-02 +7.9133348475e-02 +3.9193427279e+01 3.9193597279e+01 4.9935713700e-03 0.0000e+00 0.0000e+00
       11 -1    0    0    0    0 +4.8124833292e-18 -4.5392037582e-18 -2.2481918917e-15 5.1100000000e-04 5.1099893000e-04 0.0000e+00 1.0000e+00
       50  1    1    2    0    0 -9.1010711815e-02 +8.1219591452e-02 +3.9137402275e+01 3.9137592688e+01 4.9935713700e-03 0.0000e+00 0.0000e+00
       11  1    1    2    0    0 +7.1131957298e-03 -2.0862429767e-03 +5.6025003206e-02 5.6515591366e-02 5.1099893000e-04 0.0000e+00 1.0000e+00
<vert_displacement>
47.955623758845526
</vert_displacement>
</event>
<event>
 4   1200 +8.5212000e+10 1.04316700e-02 7.81665300e-03            nan
       50 -1    0    0    0    0 -6.6170647240e-03 +4.8590215669e-03 +3.3220159446e+00 3.3220298415e+00 4.9935713700e-03 0.0000e+00 0.0000e+00
       11 -1    0    0    0    0 -2.9024977105e-19 +2.1313527314e-19 +1.4571632704e-16 5.1100000000e-04 5.1099893000e-04 0.0000e+00 1.0000e+00
       50  1    1    2    0    0 -8.4018575802e-03 +1.3684046345e-02 +3.2377564202e+00 3.2378000890e+00 4.9935713700e-03 0.0000e+00 0.0000e+00
       11  1    1    2    0    0 +1.7847928562e-03 -8.8250247782e-03 +8.4259524440e-02 8.4740752455e-02 5.1099893000e-04 0.0000e+00 1.0000e+00
<vert_displacement>
374.30555673339012
</vert_displacement>
</event>
<event>
 4   1200 +8.5212000e+10 2.44699700e-02 7.81665300e-03            nan
       50 -1    0    0    0    0 +3.1987492853e-03 -1.8708559761e-02 +1.1121863160e+01 1.1121880477e+01 4.9935713700e-03 0.0000e+00 0.0000e+00
       11 -1    0    0    0    0 -1.3969803883e-19 +8.1705344024e-19 -4.8572186598e-16 5.1100000000e-04 5.1099893000e-04 0.0000e+00 1.0000e+00
       50  1    1    2    0    0 -1.6370582381e-02 -3.6560376183e-03 +1.0528665874e+01 1.0528680420e+01 4.9935713700e-03 0.0000e+00 0.0000e+00
       11  1    1    2    0    0 +1.9569331666e-02 -1.5052522143e-02 +5.9319728611e-01 5.9371105644e-01 5.1099893000e-04 0.0000e+00 1.0000e+00
<vert_displacement>
261.24634637364539
</vert_displacement>
</event>
<event>
 4   1200 +8.5212000e+10 1.76047900e-02 7.81665300e-03            nan
       50 -1    0    0    0    0 +5.6631977635e-02 -4.3142084573e-02 +1.7978922835e+01 1.7979064482e+01 4.9935713700e-03 0.0000e+00 0.0000e+00
       11 -1    0    0    0    0 +2.2730984247e-18 -1.7316401188e-18 +7.2163930839e-16 5.1100000000e-04 5.1099893000e-04 0.0000e+00 1.0000e+00
       50  1    1    2    0    0 +3.8858990817e-02 -4.2659052393e-02 +1.7695640463e+01 1.7695735253e+01 4.9935713700e-03 0.0000e+00 0.0000e+00
       11  1    1    2    0    0 +1.7772986818e-02 -4.8303217974e-04 +2.8328237236e-01 2.8384022969e-01 5.1099893000e-04 0.0000e+00 1.0000e+00
<vert_displacement>
349.11003226035365
</vert_displacement>
</event>
<event>
 4   1200 +8.5212000e+10 7.21501400e-03 7.81665300e-03            nan
       50 -1    0    0    0    0 +6.9084464433e-02 -1.6234508434e-02 +2.9395955728e+01 2.9396041814e+01 4.9935713700e-03 0.0000e+00 0.0000e+00
       11 -1    0    0    0    0 +1.0110519743e-18 -2.3759222772e-19 +4.3021016838e-16 5.1100000000e-04 5.1099893000e-04 0.0000e+00 1.0000e+00
       50  1    1    2    0    0 +6.8519957353e-02 -2.1403330231e-02 +2.9369392785e+01 2.9369480938e+01 4.9935713700e-03 0.0000e+00 0.0000e+00
       11  1    1    2    0    0 +5.6450707963e-04 +5.1688217964e-03 +2.6562943215e-02 2.7071875797e-02 5.1099893000e-04 0.0000e+00 1.0000e+00
<vert_displacement>
372.78629692945975
</vert_displacement>
</event>
<event>
 4   1200 +8.5212000e+10 2.35669900e-02 7.81665300e-03            nan
       50 -1    0    0    0    0 +1.5654933330e-02 -8.6289944942e-04 +2.6424491615e+01 2.6424496738e+01 4.9935713700e-03 0.0000e+00 0.0000e+00
       11 -1    0    0    0    0 -1.8252305224e-18 +1.0060665093e-19 -3.0808683510e-15 5.1100000000e-04 5.1099893000e-04 0.0000e+00 1.0000e+00
       50  1    1    2    0    0 -7.3522692231e-03 +3.0884915635e-03 +2.5894819437e+01 2.5894821146e+01 4.9935713700e-03 0.0000e+00 0.0000e+00
       11  1    1    2    0    0 +2.3007202553e-02 -3.9513910130e-03 +5.2967217811e-01 5.3018659191e-01 5.1099893000e-04 0.0000e+00 1.0000e+00
<vert_displacement>
22.100320250821223
</vert_displacement>
</event>
<event>
 4   1200 +8.5212000e+10 1.13789700e-02 7.81665300e-03            nan
       50 -1    0    0    0    0 +1.9076640156e-03 -7.7668155212e-03 +9.9243601265e+00 9.9243646052e+00 4.9935713700e-03 0.0000e+00 0.0000e+00
       11 -1    0    0    0    0 +9.6033327028e-20 -3.9098768378e-19 +4.9960019886e-16 5.1100000000e-04 5.1099893000e-04 0.0000e+00 1.0000e+00
       50  1    1    2    0    0 -4.2137580858e-03 +5.1873217796e-04 +9.8209883214e+00 9.8209905086e+00 4.9935713700e-03 0.0000e+00 0.0000e+00
       11  1    1    2    0    0 +6.1214221015e-03 -8.2855476991e-03 +1.0337180502e-01 1.0388509663e-01 5.1099893000e-04 0.0000e+00 1.0000e+00
<vert_displacement>
359.23582059134583
</vert_displacement>
</event>
<event>
 4   1200 +8.5212000e+10 1.07300400e-02 7.81665300e-03            nan
       50 -1    0    0    0    0 +2.2313281511e-02 -1.7920249293e-02 +1.7198117254e+01 1.7198141790e+01 4.9935713700e-03 0.0000e+00 0.0000e+00
       11 -1    0    0    0    0 +1.6564945371e-18 -1.3303643860e-18 +1.2767547106e-15 5.1100000000e-04 5.1099893000e-04 0.0000e+00 1.0000e+00
       50  1    1    2    0    0 +2.4789535352e-02 -2.6964694837e-02 +1.7109387194e+01 1.7109427130e+01 4.9935713700e-03 0.0000e+00 0.0000e+00
       11  1    1    2    0    0 -2.4762538412e-03 +9.0444455443e-03 +8.8730059718e-02 8.9225660242e-02 5.1099893000e-04 0.0000e+00 1.0000e+00
<vert_displacement>
225.35155621596329
</vert_displacement>
</event>
<event>
 4   1200 +8.5212000e+10 2.16548900e-02 7.81665300e-03            nan
       50 -1    0    0    0    0 +9.2753330915e-02 +7.5097765432e-02 +2.9823027373e+01 2.9823266579e+01 4.9935713700e-03 0.0000e+00 0.0000e+00
       11 -1    0    0    0    0 -2.0717425724e-18 -1.6773870675e-18 -6.6612848118e-16 5.1100000000e-04 5.1099893000e-04 0.0000e+00 1.0000e+00
       50  1    1    2    0    0 +7.2412882265e-02 +8.3162046648e-02 +2.9382093057e+01 2.9382300402e+01 4.9935713700e-03 0.0000e+00 0.0000e+00
       11  1    1    2    0    0 +2.0340448651e-02 -8.0642812164e-03 +4.4093431532e-01 4.4147717725e-01 5.1099893000e-04 0.0000e+00 1.0000e+00
<vert_displacement>
125.66698378625115
</vert_displacement>
</event>
<event>
 4   1200 +8.5212000e+10 6.95676600e-03 7.81665300e-03            nan
       50 -1    0    0    0    0 +6.3304590892e-02 -3.2207028483e-02 +3.0039771714e+01 3.0039856097e+01 4.9935713700e-03 0.0000e+00 0.0000e+00
       11 -1    0    0    0    0 +3.9773747816e-18 -2.0235408060e-18 +1.8873738662e-15 5.1100000000e-04 5.1099893000e-04 0.0000e+00 1.0000e+00
       50  1    1    2    0    0 +6.0681835141e-02 -3.6285274380e-02 +3.0016799021e+01 3.0016882705e+01 4.9935713700e-03 0.0000e+00 0.0000e+00
       11  1    1    2    0    0 +2.6227557506e-03 +4.0782458969e-03 +2.2972692956e-02 2.3484392240e-02 5.1099893000e-04 0.0000e+00 1.0000e+00
<vert_displacement>
239.17731442784989
</vert_displacement>
</event>
<event>
 4   1200 +8.5212000e+10 7.73391200e-03 7.81665300e-03            nan
       50 -1    0    0    0    0 +1.6620136764e-02 -1.5794937304e-02 +1.4213637216e+01 1.4213656586e+01 4.9935713700e-03 0.0000e+00 0.0000e+00
       11 -1    0    0    0    0 -9.8175793286e-19 +9.3301308026e-19 -8.3960506998e-16 5.1100000000e-04 5.1099893000e-04 0.0000e+00 1.0000e+00
       50  1    1    2    0    0 +1.0701125988e-02 -1.5195802637e-02 +1.4179434194e+01 1.4179447254e+01 4.9935713700e-03 0.0000e+00 0.0000e+00
       11  1    1    2    0    0 +5.9190107763e-03 -5.9913466628e-04 +3.4203021329e-02 3.4720331780e-02 5.1099893000e-04 0.0000e+00 1.0000e+00
<vert_displacement>
432.52327688555482
</vert_displacement>
</event>
<event>
 4   1200 +8.5212000e+10 1.00910100e-02 7.81665300e-03            nan
       50 -1    0    0    0    0 +1.7678702627e-02 +2.2958699234e-02 +1.1597705503e+01 1.1597742776e+01 4.9935713700e-03 0.0000e+00 0.0000e+00
       11 -1    0    0    0    0 -1.2904079687e-18 -1.6758067075e-18 -8.4654241407e-16 5.1100000000e-04 5.1099893000e-04 0.0000e+00 1.0000e+00
       50  1    1    2    0    0 +1.1851767506e-02 +2.9462470756e-02 +1.1521964751e+01 1.1522009597e+01 4.9935713700e-03 0.0000e+00 0.0000e+00
       11  1    1    2    0    0 +5.8269351208e-03 -6.5037715229e-03 +7.5740751887e-02 7.6244179012e-02 5.1099893000e-04 0.0000e+00 1.0000e+00
<vert_displacement>
423.52763877893682
</vert_displacement>
</event>
<event>
 4   1200 +8.5212000e+10 1.07255700e-02 7.81665300e-03            nan
       50 -1    0    0    0    0 +1.5501152315e-02 +9.6876134313e-03 +4.9197224249e+00 4.9197589178e+00 4.9935713700e-03 0.0000e+00 0.0000e+00
       11 -1    0    0    0    0 +1.5304130945e-18 +9.5644827872e-19 +4.8571922057e-16 5.1100000000e-04 5.1099893000e-04 0.0000e+00 1.0000e+00
       50  1    1    2    0    0 +2.2546332952e-02 +1.5543875103e-02 +4.8298684379e+00 4.8299486553e+00 4.9935713700e-03 0.0000e+00 0.0000e+00
       11  1    1    2    0    0 -7.0451806366e-03 -5.8562616717e-03 +8.9853986947e-02 9.0321262509e-02 5.1099893000e-04 0.0000e+00 1.0000e+00
<vert_displacement>
311.10239190937938
</vert_displacement>
</event>
<event>
 4   1200 +8.5212000e+10 1.69331500e-02 7.81665300e-03            nan
       50 -1    0    0    0    0 +4.0792397955e-03 -7.9091915709e-03 +6.4494277196e+00 6.4494357925e+00 4.9935713700e-03 0.0000e+00 0.0000e+00
       11 -1    0    0    0    0 +4.3888212155e-21 -8.5094354596e-21 +6.9388872982e-18 5.1100000000e-04 5.1099893000e-04 0.0000e+00 1.0000e+00
       50  1    1    2    0    0 +1.5935556986e-02 +3.2438551443e-03 +6.1821330728e+00 6.1821564789e+00 4.9935713700e-03 0.0000e+00 0.0000e+00
       11  1    1    2    0    0 -1.1856317190e-02 -1.1153046715e-02 +2.6729464679e-01 2.6779031355e-01 5.1099893000e-04 0.0000e+00 1.0000e+00
<vert_displacement>
398.28397996535693
</vert_displacement>
</event>
<event>
 4   1200 +8.5212000e+10 2.68109900e-02 7.81665300e-03            nan
       50 -1    0    0    0    0 -3.5553164025e-03 -4.0209658059e-02 +1.6365300484e+01 1.6365351030e+01 4.9935713700e-03 0.0000e+00 0.0000e+00
       11 -1    0    0    0    0 -6.4217411778e-19 -7.2628139854e-18 +2.9559598109e-15 5.1100000000e-04 5.1099893000e-04 0.0000e+00 1.0000e+00
       50  1    1    2    0    0 +2.2926887945e-02 -3.9319813181e-02 +1.5655497107e+01 1.5655564068e+01 4.9935713700e-03 0.0000e+00 0.0000e+00
       11  1    1    2    0    0 -2.6482204348e-02 -8.8984487799e-04 +7.0980337745e-01 7.1029796193e-01 5.1099893000e-04 0.0000e+00 1.0000e+00
<vert_displacement>
443.28317783611379
</vert_displacement>
</event>
<event>
 4   1200 +8.5212000e+10 3.06423000e-02 7.81665300e-03            nan
       50 -1    0    0    0    0 -2.3437270322e-02 -3.6207906719e-02 +1.4668219497e+01 1.4668283760e+01 4.9935713700e-03 0.0000e+00 0.0000e+00
       11 -1    0    0    0    0 -8.5370676673e-19 -1.3188794834e-18 +5.3429252077e-16 5.1100000000e-04 5.1099893000e-04 0.0000e+00 1.0000e+00
       50  1    1    2    0    0 -4.9117346288e-02 -2.0666935834e-02 +1.3711315124e+01 1.3711419584e+01 4.9935713700e-03 0.0000e+00 0.0000e+00
       11  1    1    2    0    0 +2.5680075966e-02 -1.5540970885e-02 +9.5690437213e-01 9.5737517547e-01 5.1099893000e-04 0.0000e+00 1.0000e+00
<vert_displacement>
340.30739561315568
</vert_displacement>
</event>
<event>
 4   1200 +8.5212000e+10 1.29776600e-02 7.81665300e-03            nan
       50 -1    0    0    0    0 +7.8726662628e-03 -4.4831537914e-03 +4.5170117812e+00 4.5170236267e+00 4.9935713700e-03 0.0000e+00 0.0000e+00
       11 -1    0    0    0    0 +2.1768700122e-19 -1.2396363218e-19 +1.2489983905e-16 5.1100000000e-04 5.1099893000e-04 0.0000e+00 1.0000e+00
       50  1    1    2    0    0 +1.7856594354e-02 +1.8810903397e-03 +4.3719035231e+00 4.3719432461e+00 4.9935713700e-03 0.0000e+00 0.0000e+00
       11  1    1    2    0    0 -9.9839280917e-03 -6.3642441311e-03 +1.4510825806e-01 1.4559138058e-01 5.1099893000e-04 0.0000e+00 1.0000e+00
<vert_displacement>
364.24501487480575
</vert_displacement>
</event>
<event>
 4   1200 +8.5212000e+10 2.63651500e-02 7.81665300e-03            nan
       50 -1    0    0    0    0 -5.6374958597e-03 -9.0203106250e-03 +3.8668497315e+00 3.8668675862e+00 4.9935713700e-03 0.0000e+00 0.0000e+00
       11 -1    0    0    0    0 -5.5639117631e-19 -8.9025719295e-19 +3.8163772077e-16 5.1100000000e-04 5.1099893000e-04 0.0000e+00 1.0000e+00
       50  1    1    2    0    0 +1.5504639308e-02 +9.4722824414e-03 +3.0278826164e+00 3.0279412466e+00 4.9935713700e-03 0.0000e+00 0.0000e+00
       11  1    1    2    0    0 -2.1142135168e-02 -1.8492593066e-02 +8.3896711510e-01 8.3943733966e-01 5.1099893000e-04 0.0000e+00 1.0000e+00
<vert_displacement>
407.40840799310689
</vert_displacement>
</event>
<event>
 4   1200 +8.5212000e+10 3.30218500e-02 7.81665300e-03            nan
       50 -1    0    0    0    0 -9.6722242702e-03 -4.6199061075e-02 +2.1938373262e+01 2.1938424607e+01 4.9935713700e-03 0.0000e+00 0.0000e+00
       11 -1    0    0    0    0 -1.4072427189e-19 -6.7216485577e-19 +3.1918838082e-16 5.1100000000e-04 5.1099893000e-04 0.0000e+00 1.0000e+00
       50  1    1    2    0    0 -2.5758017729e-02 -1.5763927007e-02 +2.0840862251e+01 2.0840884729e+01 4.9935713700e-03 0.0000e+00 0.0000e+00
       11  1    1    2    0    0 +1.6085793459e-02 -3.0435134067e-02 +1.0975110113e+00 1.0980508782e+00 5.1099893000e-04 0.0000e+00 1.0000e+00
<vert_displacement>
20.888527772908247
</vert_displacement>
</event>
<event>
 4   1200 +8.5212000e+10 1.45247100e-02 7.81665300e-03            nan
       50 -1    0    0    0    0 +3.7521655004e-02 +9.9635289444e-02 +3.8636728229e+01 3.8636875239e+01 4.9935713700e-03 0.0000e+00 0.0000e+00
       11 -1    0    0    0    0 -5.6469541279e-18 -1.4994965146e-17 -5.8147710152e-15 5.1100000000e-04 5.1099893000e-04 0.0000e+00 -1.0000e+00
       50  1    1    2    0    0 +3.4199058590e-02 +1.1243540833e-01 +3.8453802052e+01 3.8453981958e+01 4.9935713700e-03 0.0000e+00 0.0000e+00
       11  1    1    2    0    0 +3.3225964144e-03 -1.2800118890e-02 +1.8292617749e-01 1.8340428082e-01 5.1099893000e-04 0.0000e+00 -1.0000e+00
<vert_displacement>
161.21135762249685
</vert_displacement>
</event>
<event>
 4   1200 +8.5212000e+10 7.86290200e-03 7.81665300e-03            nan
       50 -1    0    0    0    0 -1.4196329261e-02 +1.1356503832e-02 +4.4960494486e+00 4.4960889767e+00 4.9935713700e-03 0.0000e+00 0.0000e+00
       11 -1    0    0    0    0 +1.9937608950e-18 -1.5949301280e-18 -6.3143418331e-16 5.1100000000e-04 5.1099893000e-04 0.0000e+00 1.0000e+00
       50  1    1    2    0    0 -8.0416445187e-03 +1.0624044196e-02 +4.4596747287e+00 4.4596974292e+00 4.9935713700e-03 0.0000e+00 0.0000e+00
       11  1    1    2    0    0 -6.1546847421e-03 +7.3245963557e-04 +3.6374719935e-02 3.6902547495e-02 5.1099893000e-04 0.0000e+00 1.0000e+00
<vert_displacement>
15.072312485911857
</vert_displacement>
</event>
<event>
 4   1200 +8.5212000e+10 2.86978500e-02 7.81665300e-03            nan
       50 -1    0    0    0    0 +1.6471661938e-02 +5.1409713953e-03 +7.6563067917e+00 7.6563278645e+00 4.9935713700e-03 0.0000e+00 0.0000e+00
       11 -1    0    0    0    0 +1.2241118140e-18 +3.8205761170e-19 +5.6898785508e-16 5.1100000000e-04 5.1099893000e-04 0.0000e+00 1.0000e+00
       50  1    1    2    0    0 -1.1130465538e-02 +1.6299317095e-02 +6.7725128632e+00 6.7725434641e+00 4.9935713700e-03 0.0000e+00 0.0000e+00
       11  1    1    2    0    0 +2.7602127476e-02 -1.1158345700e-02 +8.8379392847e-01 8.8429540044e-01 5.1099893000e-04 0.0000e+00 1.0000e+00
<vert_displacement>
441.86561269470167
</vert_displacement>
</event>
<event>
 4   1200 +8.5212000e+10 3.62903500e-02 7.81665300e-03            nan
       50 -1    0    0    0    0 -2.6188147980e-02 -2.0383795374e-02 +1.8995615893e+01 1.8995645538e+01 4.9935713700e-03 0.0000e+00 0.0000e+00
       11 -1    0    0    0    0 +6.6963636692e-19 +5.2121786882e-19 -4.8572183203e-16 5.1100000000e-04 5.1099893000e-04 0.0000e+00 1.0000e+00
       50  1    1    2    0    0 -3.3788255001e-02 -5.3595247422e-02 +1.7633503637e+01 1.7633618164e+01 4.9935713700e-03 0.0000e+00 0.0000e+00
       11  1    1    2    0    0 +7.6001070214e-03 +3.3211452048e-02 +1.3621122557e+00 1.3625383739e+00 5.1099893000e-04 0.0000e+00 1.0000e+00
<vert_displacement>
414.09266603677810
</vert_displacement>
</event>
<event>
 4   1200 +8.5212000e+10 3.86590200e-02 7.81665300e-03            nan
       50 -1    0    0    0    0 -5.9437829745e-02 -1.3726043812e-02 +2.1017433492e+01 2.1017522613e+01 4.9935713700e-03 0.0000e+00 0.0000e+00
       11 -1    0    0    0    0 -6.6719164130e-18 -1.5407530421e-18 +2.3592139901e-15 5.1100000000e-04 5.1099893000e-04 0.0000e+00 1.0000e+00
       50  1    1    2    0    0 -6.0205108840e-02 +2.5274546945e-02 +1.9464604620e+01 1.9464714778e+01 4.9935713700e-03 0.0000e+00 0.0000e+00
       11  1    1    2    0    0 +7.6727909487e-04 -3.9000590757e-02 +1.5528288720e+00 1.5533188345e+00 5.1099893000e-04 0.0000e+00 1.0000e+00
<vert_displacement>
277.29338976999350
</vert_displacement>
</event>
<event>
 4   1200 +8.5212000e+10 1.38644200e-02 7.81665300e-03            nan
       50 -1    0    0    0    0 -3.1374594445e-02 -4.9274301293e-03 +1.5578888595e+01 1.5578921768e+01 4.9935713700e-03 0.0000e+00 0.0000e+00
       11 -1    0    0    0    0 -3.6333257914e-18 -5.7061961409e-19 +1.8041086662e-15 5.1100000000e-04 5.1099893000e-04 0.0000e+00 1.0000e+00
       50  1    1    2    0    0 -2.6794422462e-02 -1.7091875132e-02 +1.5413443135e+01 1.5413476710e+01 4.9935713700e-03 0.0000e+00 0.0000e+00
       11  1    1    2    0    0 -4.5801719824e-03 +1.2164445003e-02 +1.6544546034e-01 1.6595605794e-01 5.1099893000e-04 0.0000e+00 1.0000e+00
<vert_displacement>
385.45372711034514
</vert_displacement>
</event>
<event>
 4   1200 +8.5212000e+10 8.15538600e-03 7.81665300e-03            nan
       50 -1    0    0    0    0 +1.3808056504e-02 -4.4743549794e-03 +6.3977193365e+00 6.3977377507e+00 4.9935713700e-03 0.0000e+00 0.0000e+00
       11 -1    0    0    0    0 +4.7923273894e-19 -1.5529031121e-19 +2.2204403346e-16 5.1100000000e-04 5.1099893000e-04 0.0000e+00 1.0000e+00
       50  1    1    2    0    0 +1.0346199538e-02 -9.9406397183e-03 +6.3567769601e+00 6.3567951136e+00 4.9935713700e-03 0.0000e+00 0.0000e+00
       11  1    1    2    0    0 +3.4618569668e-03 +5.4662847388e-03 +4.0942376322e-02 4.1453637009e-02 5.1099893000e-04 0.0000e+00 1.0000e+00
<vert_displacement>
13.490407056705456
</vert_displacement>
</event>
<event>
 4   1200 +8.5212000e+10 1.22404000e-02 7.81665300e-03            nan
       50 -1    0    0    0    0 -2.5611937870e-02 -5.3241330872e-02 +2.6063382208e+01 2.6063449650e+01 4.9935713700e-03 0.0000e+00 0.0000e+00
       11 -1    0    0    0    0 -1.6092102905e-18 -3.3451782507e-18 +1.6375747540e-15 5.1100000000e-04 5.1099893000e-04 0.0000e+00 1.0000e+00
       50  1    1    2    0    0 -2.4361636965e-02 -4.1872283765e-02 +2.5940621793e+01 2.5940667507e+01 4.9935713700e-03 0.0000e+00 0.0000e+00
       11  1    1    2    0    0 -1.2503009048e-03 -1.1369047106e-02 +1.2276041565e-01 1.2329314359e-01 5.1099893000e-04 0.0000e+00 1.0000e+00
<vert_displacement>
7.8701551180114233
</vert_displacement>
</event>
<event>
 4   1200 +8.5212000e+10 1.08888000e-02 7.81665300e-03            nan
       50 -1    0    0    0    0 -4.8640446381e-02 -4.8364809025e-02 +2.3047185997e+01 2.3047288612e+01 4.9935713700e-03 0.0000e+00 0.0000e+00
       11 -1    0    0    0    0 -5.4476714680e-18 -5.4168004158e-18 +2.5812571001e-15 5.1100000000e-04 5.1099893000e-04 0.0000e+00 1.0000e+00
       50  1    1    2    0    0 -4.8335360729e-02 -3.8496167497e-02 +2.2955222723e+01 2.2955306433e+01 4.9935713700e-03 0.0000e+00 0.0000e+00
       11  1    1    2    0    0 -3.0508565188e-04 -9.8686415275e-03 +9.1963274230e-02 9.2493178612e-02 5.1099893000e-04 0.0000e+00 1.0000e+00
<vert_displacement>
330.02856508579703
</vert_displacement>
</event>
<event>
 4   1200 +8.5212000e+10 1.25865000e-02 7.81665300e-03            nan
       50 -1    0    0    0    0 +1.1509740659e-02 -6.4045740745e-03 +3.4150981838e+00 3.4151272353e+00 4.9935713700e-03 0.0000e+00 0.0000e+00
       11 -1    0    0    0    0 +3.0401339076e-19 -1.6916769356e-19 +9.0204949826e-17 5.1100000000e-04 5.1099893000e-04 0.0000e+00 1.0000e+00
       50  1    1    2    0    0 +1.0545229875e-02 +5.3930851028e-03 +3.2790304184e+00 3.2790556122e+00 4.9935713700e-03 0.0000e+00 0.0000e+00
       11  1    1    2    0    0 +9.6451078339e-04 -1.1797659177e-02 +1.3606776538e-01 1.3658262312e-01 5.1099893000e-04 0.0000e+00 1.0000e+00
<vert_displacement>
169.35872336065819
</vert_displacement>
</event>
<event>
 4   1200 +8.5212000e+10 5.69148700e-03 7.81665300e-03            nan
       50 -1    0    0    0    0 -9.8089477629e-03 -3.5003886049e-03 +5.2605014831e+00 5.2605141629e+00 4.9935713700e-03 0.0000e+00 0.0000e+00
       11 -1    0    0    0    0 +9.9626619800e-19 +3.5552425512e-19 -5.3429378348e-16 5.1100000000e-04 5.1099893000e-04 0.0000e+00 1.0000e+00
       50  1    1    2    0    0 -1.2256755436e-02 -4.6781433430e-03 +5.2531884712e+00 5.2532072263e+00 4.9935713700e-03 0.0000e+00 0.0000e+00
       11  1    1    2    0    0 +2.4478076727e-03 +1.1777547381e-03 +7.3130119515e-03 7.8179365778e-03 5.1099893000e-04 0.0000e+00 1.0000e+00
<vert_displacement>
170.82799177689662
</vert_displacement>
</event>
<event>
 4   1200 +8.5212000e+10 2.87702200e-02 7.81665300e-03            nan
       50 -1    0    0    0    0 +2.0580914313e-02 +2.7131147415e-02 +1.1763202208e+01 1.1763252560e+01 4.9935713700e-03 0.0000e+00 0.0000e+00
       11 -1    0    0    0    0 -9.4693928012e-19 -1.2483191374e-18 -5.4123145654e-16 5.1100000000e-04 5.1099893000e-04 0.0000e+00 1.0000e+00
       50  1    1    2    0    0 -9.2067765280e-03 +2.6415519655e-02 +1.0916655398e+01 1.0916692381e+01 4.9935713700e-03 0.0000e+00 0.0000e+00
       11  1    1    2    0    0 +2.9787690841e-02 +7.1562776055e-04 +8.4654680992e-01 8.4707117833e-01 5.1099893000e-04 0.0000e+00 1.0000e+00
<vert_displacement>
45.103951300804013
</vert_displacement>
</event>
<event>
 4   1200 +8.5212000e+10 8.14636800e-03 7.81665300e-03            nan
       50 -1    0    0    0    0 +8.2118658044e-02 -5.5985488178e-02 +6.9456753835e+01 6.9456825122e+01 4.9935713700e-03 0.0000e+00 0.0000e+00
       11 -1    0    0    0    0 -8.9914082764e-18 +6.1300122744e-18 -7.6050199329e-15 5.1099999999e-04 5.1099893000e-04 0.0000e+00 1.0000e+00
       50  1    1    2    0    0 +7.8989437286e-02 -6.1603755544e-02 +6.9416193199e+01 6.9416265656e+01 4.9935713700e-03 0.0000e+00 0.0000e+00
       11  1    1    2    0    0 +3.1292207576e-03 +5.6182673661e-03 +4.0560635476e-02 4.1070466529e-02 5.1099893000e-04 0.0000e+00 1.0000e+00
<vert_displacement>
426.38056418436491
</vert_displacement>
</event>
<event>
 4   1200 +8.5212000e+10 6.76842800e-02 7.81665300e-03            nan
       50 -1    0    0    0    0 +3.7825315042e-02 +3.5940101242e-02 +2.0167183305e+01 2.0167251420e+01 4.9935713700e-03 0.0000e+00 0.0000e+00
       11 -1    0    0    0    0 +4.5030026295e-18 +4.2785729669e-18 +2.4008492554e-15 5.1100000000e-04 5.1099893000e-04 0.0000e+00 1.0000e+00
       50  1    1    2    0    0 -3.6980455937e-03 -5.3604613489e-02 +6.6850679212e+00 6.6852857214e+00 4.9935713700e-03 0.0000e+00 0.0000e+00
       11  1    1    2    0    0 +4.1523360635e-02 +8.9544714732e-02 +1.3482115384e+01 1.3482476699e+01 5.1099893000e-04 0.0000e+00 1.0000e+00
<vert_displacement>
496.98173439209410
</vert_displacement>
</event>
<event>
 4   1200 +8.5212000e+10 2.32279600e-02 7.81665300e-03            nan
       50 -1    0    0    0    0 -7.4742650986e-02 -9.1400451572e-03 +2.3680771504e+01 2.3680891747e+01 4.9935713700e-03 0.0000e+00 0.0000e+00
       11 -1    0    0    0    0 +5.3438040904e-18 +6.5347709847e-19 -1.6930815532e-15 5.1100000000e-04 5.1099893000e-04 0.0000e+00 1.0000e+00
       50  1    1    2    0    0 -6.4642952392e-02 +1.2100825243e-02 +2.3166073622e+01 2.3166167511e+01 4.9935713700e-03 0.0000e+00 0.0000e+00
       11  1    1    2    0    0 -1.0099698594e-02 -2.1240870401e-02 +5.1469788167e-01 5.1523523657e-01 5.1099893000e-04 0.0000e+00 1.0000e+00
<vert_displacement>
180.73851344203317
</vert_displacement>
</event>
<event>
 4   1200 +8.5212000e+10 1.59193400e-02 7.81665300e-03            nan
       50 -1    0    0    0    0 -3.1931540085e-02 +2.8058843556e-02 +1.4699414580e+01 1.4699476891e+01 4.9935713700e-03 0.0000e+00 0.0000e+00
       11 -1    0    0    0    0 +3.2256855682e-18 -2.8344704476e-18 -1.4849170866e-15 5.1100000000e-04 5.1099893000e-04 0.0000e+00 1.0000e+00
       50  1    1    2    0    0 -3.2197581429e-02 +1.2528598767e-02 +1.4472349756e+01 1.4472391857e+01 4.9935713700e-03 0.0000e+00 0.0000e+00
       11  1    1    2    0    0 +2.6604134456e-04 +1.5530244789e-02 +2.2706482422e-01 2.2759603423e-01 5.1099893000e-04 0.0000e+00 1.0000e+00
<vert_displacement>
134.15677315425995
</vert_displacement>
</event>
<event>
 4   1200 +8.5212000e+10 3.22251300e-02 7.81665300e-03            nan
       50 -1    0    0    0    0 -7.7498007639e-02 +1.0211509392e-01 +4.1492918343e+01 4.1493116670e+01 4.9935713700e-03 0.0000e+00 0.0000e+00
       11 -1    0    0    0    0 +4.3804772681e-18 -5.7719270635e-18 -2.3453349463e-15 5.1099999999e-04 5.1099893000e-04 0.0000e+00 1.0000e+00
       50  1    1    2    0    0 -1.0167034527e-01 +8.1342437385e-02 +4.0476278087e+01 4.0476487819e+01 4.9935713700e-03 0.0000e+00 0.0000e+00
       11  1    1    2    0    0 +2.4172337626e-02 +2.0772656537e-02 +1.0166402560e+00 1.0171398509e+00 5.1099893000e-04 0.0000e+00 1.0000e+00
<vert_displacement>
50.621192348826256
</vert_displacement>
</event>
<event>
 4   1200 +8.5212000e+10 2.15002600e-02 7.81665300e-03            nan
       50 -1    0    0    0    0 +1.4029746945e-02 -6.9199813296e-02 +2.8673178267e+01 2.8673265638e+01 4.9935713700e-03 0.0000e+00 0.0000e+00
       11 -1    0    0    0    0 +3.3951810113e-19 -1.6746267272e-18 +6.9388728656e-16 5.1100000000e-04 5.1099893000e-04 0.0000e+00 1.0000e+00
       50  1    1    2    0    0 +3.3606382066e-02 -7.4912134825e-02 +2.8238644738e+01 2.8238764541e+01 4.9935713700e-03 0.0000e+00 0.0000e+00
       11  1    1    2    0    0 -1.9576635122e-02 +5.7123215282e-03 +4.3453352881e-01 4.3501209642e-01 5.1099893000e-04 0.0000e+00 1.0000e+00
<vert_displacement>
461.87818018144253
</vert_displacement>
</event>
<event>
 4   1200 +8.5212000e+10 6.95387300e-03 7.81665300e-03            nan
       50 -1    0    0    0    0 +9.3754919470e-03 -3.9332224496e-03 +4.9004770964e+00 4.9004901875e+00 4.9935713700e-03 0.0000e+00 0.0000e+00
       11 -1    0    0    0    0 -1.2080541626e-18 +5.0680495271e-19 -6.3143798626e-16 5.1100000000e-04 5.1099893000e-04 0.0000e+00 1.0000e+00
       50  1    1    2    0    0 +1.4092172906e-02 -4.7841530079e-03 +4.8774397713e+00 4.8774650318e+00 4.9935713700e-03 0.0000e+00 0.0000e+00
       11  1    1    2    0    0 -4.7166809590e-03 +8.5093055824e-04 +2.3037325091e-02 2.3536155789e-02 5.1099893000e-04 0.0000e+00 1.0000e+00
<vert_displacement>
325.14838817984679
</vert_displacement>
</event>
<event>
 4   1200 +8.5212000e+10 8.20564900e-03 7.81665300e-03            nan
       50 -1    0    0    0    0 +2.2732670729e-02 +1.5698690735e-03 +6.9307666907e+00 6.9308059485e+00 4.9935713700e-03 0.0000e+00 0.0000e+00
       11 -1    0    0    0    0 -1.0241642113e-18 -7.0726565329e-20 -3.1224853806e-16 5.1100000000e-04 5.1099893000e-04 0.0000e+00 1.0000e+00
       50  1    1    2    0    0 +2.6338513374e-02 +6.8885096635e-03 +6.8890138477e+00 6.8890694508e+00 4.9935713700e-03 0.0000e+00 0.0000e+00
       11  1    1    2    0    0 -3.6058426447e-03 -5.3186405900e-03 +4.1752843057e-02 4.2247497703e-02 5.1099893000e-04 0.0000e+00 1.0000e+00
<vert_displacement>
87.159806685289254
</vert_displacement>
</event>
<event>
 4   1200 +8.5212000e+10 8.21734500e-03 7.81665300e-03            nan
       50 -1    0    0    0    0 +1.4949025044e-03 +6.5620807776e-03 +2.2553882209e+01 2.2553883766e+01 4.9935713700e-03 0.0000e+00 0.0000e+00
       11 -1    0    0    0    0 +1.3797583915e-20 +6.0566398089e-20 +2.0816680785e-16 5.1100000000e-04 5.1099893000e-04 0.0000e+00 1.0000e+00
       50  1    1    2    0    0 +6.1819337513e-03 +1.1088082431e-02 +2.2512130046e+01 2.2512134179e+01 4.9935713700e-03 0.0000e+00 0.0000e+00
       11  1    1    2    0    0 -4.6870312469e-03 -4.5260016539e-03 +4.1752163179e-02 4.2260586874e-02 5.1099893000e-04 0.0000e+00 1.0000e+00
<vert_displacement>
96.073080406414689
</vert_displacement>
</event>
<event>
 4   1200 +8.5212000e+10 8.81258400e-03 7.81665300e-03            nan
       50 -1    0    0    0    0 -4.7262053070e-02 +3.2773402055e-02 +2.0432239871e+01 2.0432321426e+01 4.9935713700e-03 0.0000e+00 0.0000e+00
       11 -1    0    0    0    0 -4.9114141617e-18 +3.4057714493e-18 +2.1232931229e-15 5.1100000000e-04 5.1099893000e-04 0.0000e+00 1.0000e+00
       50  1    1    2    0    0 -4.9625762732e-02 +3.9513821985e-02 +2.0380500128e+01 2.0380599462e+01 4.9935713700e-03 0.0000e+00 0.0000e+00
       11  1    1    2    0    0 +2.3637096619e-03 -6.7404199304e-03 +5.1739743052e-02 5.2232963875e-02 5.1099893000e-04 0.0000e+00 1.0000e+00
<vert_displacement>
34.267058376474054
</vert_displacement>
</event>
<event>
 4   1200 +8.5212000e+10 1.25275600e-02 7.81665300e-03            nan
       50 -1    0    0    0    0 +2.2563983947e-02 +6.2342129237e-02 +2.4361443162e+01 2.4361533891e+01 4.9935713700e-03 0.0000e+00 0.0000e+00
       11 -1    0    0    0    0 -4.7559045353e-19 -1.3140109294e-18 -5.1347624733e-16 5.1100000000e-04 5.1099893000e-04 0.0000e+00 1.0000e+00
       50  1    1    2    0    0 +2.5551438258e-02 +5.0948830578e-02 +2.4231610983e+01 2.4231678531e+01 4.9935713700e-03 0.0000e+00 0.0000e+00
       11  1    1    2    0    0 -2.9874543111e-03 +1.1393298660e-02 +1.2983217931e-01 1.3036636086e-01 5.1099893000e-04 0.0000e+00 1.0000e+00
<vert_displacement>
195.27546361814998
</vert_displacement>
</event>
<event>
 4   1200 +8.5212000e+10 1.28859900e-02 7.81665300e-03            nan
       50 -1    0    0    0    0 +4.3716207990e-03 -1.4113841991e-02 +8.9496503169e+00 8.9496639067e+00 4.9935713700e-03 0.0000e+00 0.0000e+00
       11 -1    0    0    0    0 -1.3557701362e-20 +4.3771238078e-20 -2.7755537790e-17 5.1100000000e-04 5.1099893000e-04 0.0000e+00 1.0000e+00
       50  1    1    2    0    0 -7.4786816425e-03 -1.5410053116e-02 +8.8093657249e+00 8.8093837929e+00 4.9935713700e-03 0.0000e+00 0.0000e+00
       11  1    1    2    0    0 +1.1850302442e-02 +1.2962111254e-03 +1.4028459203e-01 1.4079111376e-01 5.1099893000e-04 0.0000e+00 1.0000e+00
<vert_displacement>
213.60311709871326
</vert_displacement>
</event>
<event>
 4   1200 +8.5212000e+10 1.32361400e-02 7.81665300e-03            nan
       50 -1    0    0    0    0 -3.4348006457e-03 +7.2055978342e-03 +2.9184782814e+00 2.9184934698e+00 4.9935713700e-03 0.0000e+00 0.0000e+00
       11 -1    0    0    0    0 -2.6132663193e-19 +5.4821656546e-19 +2.2204377439e-16 5.1100000000e-04 5.1099893000e-04 0.0000e+00 1.0000e+00
       50  1    1    2    0    0 +1.1569488607e-03 -4.6157369025e-03 +2.7631189606e+00 2.7631275703e+00 4.9935713700e-03 0.0000e+00 0.0000e+00
       11  1    1    2    0    0 -4.5917495064e-03 +1.1821334737e-02 +1.5535932082e-01 1.5587689952e-01 5.1099893000e-04 0.0000e+00 1.0000e+00
<vert_displacement>
49.083729397693574
</vert_displacement>
</event>
<event>
 4   1200 +8.5212000e+10 1.42043000e-02 7.81665300e-03            nan
       50 -1    0    0    0    0 -4.1678702032e-02 -2.6094871869e-02 +1.5002927680e+01 1.5003009097e+01 4.9935713700e-03 0.0000e+00 0.0000e+00
       11 -1    0    0    0    0 -2.3517216370e-18 -1.4724036929e-18 +8.4654050921e-16 5.1100000000e-04 5.1099893000e-04 0.0000e+00 1.0000e+00
       50  1    1    2    0    0 -4.2000639234e-02 -3.9063361037e-02 +1.4827831265e+01 1.4827943045e+01 4.9935713700e-03 0.0000e+00 0.0000e+00
       11  1    1    2    0    0 +3.2193720103e-04 +1.2968489169e-02 +1.7509641501e-01 1.7557705153e-01 5.1099893000e-04 0.0000e+00 1.0000e+00
<vert_displacement>
156.50948011714641
</vert_displacement>
</event>
<event>
 4   1200 +8.5212000e+10 2.85827000e-02 7.81665300e-03            nan
       50 -1    0    0    0    0 +2.1108271819e-02 -3.0313927220e-02 +2.1152997418e+01 2.1153030261e+01 4.9935713700e-03 0.0000e+00 0.0000e+00
       11 -1    0    0    0    0 +8.5860226900e-19 -1.2330524695e-18 +8.6042153216e-16 5.1100000000e-04 5.1099893000e-04 0.0000e+00 1.0000e+00
       50  1    1    2    0    0 +8.4181281369e-04 -4.9487773092e-02 +2.0347259056e+01 2.0347319867e+01 4.9935713700e-03 0.0000e+00 0.0000e+00
       11  1    1    2    0    0 +2.0266459005e-02 +1.9173845872e-02 +8.0573836210e-01 8.0622139329e-01 5.1099893000e-04 0.0000e+00 1.0000e+00
<vert_displacement>
20.633445848401067
</vert_displacement>
</event>
<event>
 4   1200 +8.5212000e+10 2.18465600e-02 7.81665300e-03            nan
       50 -1    0    0    0    0 -4.7679346069e-02 -6.7110910428e-03 +1.4776350902e+01 1.4776430194e+01 4.9935713700e-03 0.0000e+00 0.0000e+00
       11 -1    0    0    0    0 +1.5672889651e-19 +2.2060325492e-20 -4.8571999457e-17 5.1100000000e-04 5.1099893000e-04 0.0000e+00 1.0000e+00
       50  1    1    2    0    0 -2.7670355646e-02 +3.9261254002e-03 +1.4319661153e+01 1.4319689296e+01 4.9935713700e-03 0.0000e+00 0.0000e+00
       11  1    1    2    0    0 -2.0008990423e-02 -1.0637216443e-02 +4.5668974886e-01 4.5725189765e-01 5.1099893000e-04 0.0000e+00 1.0000e+00
<vert_displacement>
473.03224403278494
</vert_displacement>
</event>
<event>
 4   1200 +8.5212000e+10 1.41761700e-02 7.81665300e-03            nan
       50 -1    0    0    0    0 +1.4264678146e-02 -6.1233612575e-03 +4.2949095737e+00 4.2949405303e+00 4.9935713700e-03 0.0000e+00 0.0000e+00
       11 -1    0    0    0    0 -3.0651166272e-18 +1.3157546362e-18 -9.2286686120e-16 5.1100000000e-04 5.1099893000e-04 0.0000e+00 1.0000e+00
       50  1    1    2    0    0 +2.5589829923e-02 -1.1687771582e-02 +4.1150313953e+00 4.1151305889e+00 4.9935713700e-03 0.0000e+00 0.0000e+00
       11  1    1    2    0    0 -1.1325151777e-02 +5.5644103243e-03 +1.7987817843e-01 1.8032094143e-01 5.1099893000e-04 0.0000e+00 1.0000e+00
<vert_displacement>
443.88634821394453
</vert_displacement>
</event>
<event>
 4   1200 +8.5212000e+10 9.31015700e-02 7.81665300e-03            nan
       50 -1    0    0    0    0 +5.5365466891e-02 +6.4045219809e-02 +3.4330559887e+01 3.4330664634e+01 4.9935713700e-03 0.0000e+00 0.0000e+00
       11 -1    0    0    0    0 +1.4771375494e-18 +1.7087113025e-18 +9.1593121038e-16 5.1100000000e-04 5.1099893000e-04 0.0000e+00 1.0000e+00
       50  1    1    2    0    0 -8.3402849683e-03 +1.2007202235e-01 +1.9202802125e+01 1.9203179978e+01 4.9935713700e-03 0.0000e+00 0.0000e+00
       11  1    1    2    0    0 +6.3705751859e-02 -5.6026802541e-02 +1.5127757762e+01 1.5127995657e+01 5.1099893000e-04 0.0000e+00 1.0000e+00
<vert_displacement>
202.31877688506151
</vert_displacement>
</event>
<event>
 4   1200 +8.5212000e+10 1.69958300e-02 7.81665300e-03            nan
       50 -1    0    0    0    0 +5.6289113704e-03 -7.9612412298e-03 +5.9263244598e+00 5.9263345842e+00 4.9935713700e-03 0.0000e+00 0.0000e+00
       11 -1    0    0    0    0 -6.4588428922e-19 +9.1350534671e-19 -6.8001068226e-16 5.1100000000e-04 5.1099893000e-04 0.0000e+00 1.0000e+00
       50  1    1    2    0    0 +2.0091117516e-02 -7.2268965548e-04 +5.6556434232e+00 5.6556813596e+00 4.9935713700e-03 0.0000e+00 0.0000e+00
       11  1    1    2    0    0 -1.4462206146e-02 -7.2385515743e-03 +2.7068103660e-01 2.7116422465e-01 5.1099893000e-04 0.0000e+00 1.0000e+00
<vert_displacement>
349.52756383560057
</vert_displacement>
</event>
<event>
 4   1200 +8.5212000e+10 1.61717100e-02 7.81665300e-03            nan
       50 -1    0    0    0    0 -1.5740085676e-02 -1.2334762438e-02 +9.6726843689e+00 9.6727063293e+00 4.9935713700e-03 0.0000e+00 0.0000e+00
       11 -1    0    0    0    0 -6.5490361560e-19 -5.1321706150e-19 +4.0245498634e-16 5.1100000000e-04 5.1099893000e-04 0.0000e+00 1.0000e+00
       50  1    1    2    0    0 -3.1036399931e-03 -2.7305109620e-03 +9.4353704725e+00 9.4353726995e+00 4.9935713700e-03 0.0000e+00 0.0000e+00
       11  1    1    2    0    0 -1.2636445683e-02 -9.6042514762e-03 +2.3731389637e-01 2.3784462982e-01 5.1099893000e-04 0.0000e+00 1.0000e+00
<vert_displacement>
39.390569914852449
</vert_displacement>
</event>
<event>
 4   1200 +8.5212000e+10 2.01910800e-02 7.81665300e-03            nan
       50 -1    0    0    0    0 -1.7376738195e-02 -8.8030100857e-03 +8.3464995752e+00 8.3465237997e+00 4.9935713700e-03 0.0000e+00 0.0000e+00
       11 -1    0    0    0    0 +9.3900153745e-19 +4.7569572101e-19 -4.5102687544e-16 5.1100000000e-04 5.1099893000e-04 0.0000e+00 1.0000e+00
       50  1    1    2    0    0 -3.3608213923e-02 +1.2056103345e-03 +7.9533804099e+00 7.9534530769e+00 4.9935713700e-03 0.0000e+00 0.0000e+00
       11  1    1    2    0    0 +1.6231475728e-02 -1.0008620420e-02 +3.9311916532e-01 3.9358172283e-01 5.1099893000e-04 0.0000e+00 1.0000e+00
<vert_displacement>
116.00150467044533
</vert_displacement>
</event>
<event>
 4   1200 +8.5212000e+10 3.30765300e-02 7.81665300e-03            nan
       50 -1    0    0    0    0 +4.6412144837e-02 +2.7454531866e-02 +1.3366185348e+01 1.3366295057e+01 4.9935713700e-03 0.0000e+00 0.0000e+00
       11 -1    0    0    0    0 +2.1684698190e-18 +1.2827315771e-18 +6.2449536914e-16 5.1100000000e-04 5.1099893000e-04 0.0000e+00 1.0000e+00
       50  1    1    2    0    0 +1.0587520741e-02 +3.2493837044e-02 +1.2222004190e+01 1.2222052990e+01 4.9935713700e-03 0.0000e+00 0.0000e+00
       11  1    1    2    0    0 +3.5824624096e-02 -5.0393051779e-03 +1.1441811586e+00 1.1447530664e+00 5.1099893000e-04 0.0000e+00 1.0000e+00
<vert_displacement>
102.93814450235055
</vert_displacement>
</event>
<event>
 4   1200 +8.5212000e+10 1.44808500e-02 7.81665300e-03            nan
       50 -1    0    0    0    0 -2.6204671658e-02 +1.3573869615e-02 +1.6877483302e+01 1.6877509842e+01 4.9935713700e-03 0.0000e+00 0.0000e+00
       11 -1    0    0    0    0 -3.7061164504e-18 +1.9197470639e-18 +2.3869758538e-15 5.1100000000e-04 5.1099893000e-04 0.0000e+00 1.0000e+00
       50  1    1    2    0    0 -1.2328304202e-02 +1.3444487988e-02 +1.6694735001e+01 1.6694745714e+01 4.9935713700e-03 0.0000e+00 0.0000e+00
       11  1    1    2    0    0 -1.3876367456e-02 +1.2938162730e-04 +1.8274830027e-01 1.8327512838e-01 5.1099893000e-04 0.0000e+00 1.0000e+00
<vert_displacement>
30.664543002511479
</vert_displacement>
</event>
<event>
 4   1200 +8.5212000e+10 2.37113700e-02 7.81665300e-03            nan
       50 -1    0    0    0    0 +1.5592833878e-02 +4.4795307114e-03 +1.0515060413e+01 1.0515074114e+01 4.9935713700e-03 0.0000e+00 0.0000e+00
       11 -1    0    0    0    0 +3.4985003936e-19 +1.0050539934e-19 +2.3592211193e-16 5.1100000000e-04 5.1099893000e-04 0.0000e+00 1.0000e+00
       50  1    1    2    0    0 +2.2832405209e-03 +2.3772075820e-02 +9.9599439343e+00 9.9599738170e+00 4.9935713700e-03 0.0000e+00 0.0000e+00
       11  1    1    2    0    0 +1.3309593357e-02 -1.9292545109e-02 +5.5511647876e-01 5.5561129730e-01 5.1099893000e-04 0.0000e+00 1.0000e+00
<vert_displacement>
301.25409458498325
</vert_displacement>
</event>
<event>
 4   1200 +8.5212000e+10 2.67240900e-02 7.81665300e-03            nan
       50 -1    0    0    0    0 +3.4065847896e-03 +1.0836167580e-04 +2.9017151250e+00 2.9017214234e+00 4.9935713700e-03 0.0000e+00 0.0000e+00
       11 -1    0    0    0    0 +4.0730935162e-20 +1.2956296889e-21 +3.4694445586e-17 5.1100000000e-04 5.1099893000e-04 0.0000e+00 1.0000e+00
       50  1    1    2    0    0 -2.0780082368e-02 +1.2871787805e-02 +1.8223964350e+00 1.8225671995e+00 4.9935713700e-03 0.0000e+00 0.0000e+00
       11  1    1    2    0    0 +2.4186667158e-02 -1.2763426129e-02 +1.0793186900e+00 1.0796652239e+00 5.1099893000e-04 0.0000e+00 1.0000e+00
<vert_displacement>
345.70863848881021
</vert_displacement>
</event>
<event>
 4   1200 +8.5212000e+10 1.85118100e-02 7.81665300e-03            nan
       50 -1    0    0    0    0 -3.9452353089e-02 -4.1014258664e-02 +2.1291097880e+01 2.1291174522e+01 4.9935713700e-03 0.0000e+00 0.0000e+00
       11 -1    0    0    0    0 -5.1430831039e-18 -5.3466960584e-18 +2.7755476467e-15 5.1100000000e-04 5.1099893000e-04 0.0000e+00 1.0000e+00
       50  1    1    2    0    0 -2.7763876606e-02 -2.6461497292e-02 +2.0975544316e+01 2.0975579976e+01 4.9935713700e-03 0.0000e+00 0.0000e+00
       11  1    1    2    0    0 -1.1688476483e-02 -1.4552761373e-02 +3.1555356465e-01 3.1610554666e-01 5.1099893000e-04 0.0000e+00 1.0000e+00
<vert_displacement>
276.44879031431645
</vert_displacement>
</event>
<event>
 4   1200 +8.5212000e+10 6.56482600e-03 7.81665300e-03            nan
       50 -1    0    0    0    0 +1.3556653922e-02 +5.6780731860e-03 +8.5574053302e+00 8.5574194091e+00 4.9935713700e-03 0.0000e+00 0.0000e+00
       11 -1    0    0    0    0 -2.8580732861e-19 -1.1970763127e-19 -1.8041097540e-16 5.1100000000e-04 5.1099893000e-04 0.0000e+00 1.0000e+00
       50  1    1    2    0    0 +9.2715651953e-03 +5.4659099819e-03 +8.5396037660e+00 8.5396120084e+00 4.9935713700e-03 0.0000e+00 0.0000e+00
       11  1    1    2    0    0 +4.2850887269e-03 +2.1216320403e-04 +1.7801564118e-02 1.8318400683e-02 5.1099893000e-04 0.0000e+00 1.0000e+00
<vert_displacement>
329.85825316199083
</vert_displacement>
</event>
<event>
 4   1200 +8.5212000e+10 1.77264700e-02 7.81665300e-03            nan
       50 -1    0    0    0    0 -4.2161076996e-03 +1.2545515920e-02 +5.2466135902e+00 5.2466326597e+00 4.9935713700e-03 0.0000e+00 0.0000e+00
       11 -1    0    0    0    0 +2.2303934095e-20 -6.6367934648e-20 -2.7755487306e-17 5.1100000000e-04 5.1099893000e-04 0.0000e+00 1.0000e+00
       50  1    1    2    0    0 -1.3105436282e-02 +2.6177226595e-02 +4.9462055270e+00 4.9462946789e+00 4.9935713700e-03 0.0000e+00 0.0000e+00
       11  1    1    2    0    0 +8.8893285824e-03 -1.3631710674e-02 +3.0040806322e-01 3.0084898083e-01 5.1099893000e-04 0.0000e+00 1.0000e+00
<vert_displacement>
380.41331210441371
</vert_displacement>
</event>
<event>
 4   1200 +8.5212000e+10 9.27354200e-03 7.81665300e-03            nan
       50 -1    0    0    0    0 +2.9360130816e-03 +9.6819808822e-03 +4.1783968565e+00 4.1784120892e+00 4.9935713700e-03 0.0000e+00 0.0000e+00
       11 -1    0    0    0    0 -7.8011253604e-20 -2.5725480269e-19 -1.1102197701e-16 5.1100000000e-04 5.1099893000e-04 0.0000e+00 1.0000e+00
       50  1    1    2    0    0 -3.6361068573e-03 +5.2486681058e-03 +4.1177706910e+00 4.1177786693e+00 4.9935713700e-03 0.0000e+00 0.0000e+00
       11  1    1    2    0    0 +6.5721199389e-03 +4.4333127765e-03 +6.0626165540e-02 6.1144419947e-02 5.1099893000e-04 0.0000e+00 1.0000e+00
<vert_displacement>
125.92170793018033
</vert_displacement>
</event>
<event>
 4   1200 +8.5212000e+10 8.78254800e-03 7.81665300e-03            nan
       50 -1    0    0    0    0 -7.7288250258e-02 -1.0412575943e-02 +2.2417853233e+01 2.2417989438e+01 4.9935713700e-03 0.0000e+00 0.0000e+00
       11 -1    0    0    0    0 +1.4353516849e-19 +1.9337620368e-20 -4.1633111506e-17 5.1100000000e-04 5.1099893000e-04 0.0000e+00 1.0000e+00
       50  1    1    2    0    0 -7.0037735234e-02 -1.1856787057e-02 +2.2366685293e+01 2.2366798649e+01 4.9935713700e-03 0.0000e+00 0.0000e+00
       11  1    1    2    0    0 -7.2505150241e-03 +1.4442111145e-03 +5.1167939903e-02 5.1701788244e-02 5.1099893000e-04 0.0000e+00 1.0000e+00
<vert_displacement>
67.180466349680444
</vert_displacement>
</event>
<event>
 4   1200 +8.5212000e+10 2.50491100e-02 7.81665300e-03            nan
       50 -1    0    0    0    0 +2.2356786340e-02 +1.9378275195e-02 +1.1296076049e+01 1.1296115898e+01 4.9935713700e-03 0.0000e+00 0.0000e+00
       11 -1    0    0    0    0 -3.8452852114e-19 -3.3329922241e-19 -1.9428836290e-16 5.1100000000e-04 5.1099893000e-04 0.0000e+00 1.0000e+00
       50  1    1    2    0    0 +3.4971003807e-02 +3.8573563998e-02 +1.0671878388e+01 1.0672006567e+01 4.9935713700e-03 0.0000e+00 0.0000e+00
       11  1    1    2    0    0 -1.2614217467e-02 -1.9195288804e-02 +6.2419766071e-01 6.2462033136e-01 5.1099893000e-04 0.0000e+00 1.0000e+00
<vert_displacement>
257.21185215532012
</vert_displacement>
</event>
<event>
 4   1200 +8.5212000e+10 3.79732700e-02 7.81665300e-03            nan
       50 -1    0    0    0    0 -1.5794697048e-02 -1.0614912467e-02 +9.3991046876e+00 9.3991252791e+00 4.9935713700e-03 0.0000e+00 0.0000e+00
       11 -1    0    0    0    0 -1.4342315833e-18 -9.6388317350e-19 +8.5348220082e-16 5.1100000000e-04 5.1099893000e-04 0.0000e+00 1.0000e+00
       50  1    1    2    0    0 +7.0032701812e-03 -4.0623409335e-02 +7.7071427376e+00 7.7072545968e+00 4.9935713700e-03 0.0000e+00 0.0000e+00
       11  1    1    2    0    0 -2.2797967229e-02 +3.0008496867e-02 +1.6919619500e+00 1.6923816823e+00 5.1099893000e-04 0.0000e+00 1.0000e+00
<vert_displacement>
407.99689472078711
</vert_displacement>
</event>
<event>
 4   1200 +8.5212000e+10 5.04812000e-02 7.81665300e-03            nan
       50 -1    0    0    0    0 +5.6531139644e-02 -4.8030850261e-02 +3.4549019415e+01 3.4549099412e+01 4.9935713700e-03 0.0000e+00 0.0000e+00
       11 -1    0    0    0    0 -4.5188126240e-18 +3.8393425972e-18 -2.7616734080e-15 5.1100000000e-04 5.1099893000e-04 0.0000e+00 1.0000e+00
       50  1    1    2    0    0 +8.9460112715e-02 -7.7947034630e-02 +3.1872270846e+01 3.1872492100e+01 4.9935713700e-03 0.0000e+00 0.0000e+00
       11  1    1    2    0    0 -3.2928973071e-02 +2.9916184369e-02 +2.6767485684e+00 2.6771183117e+00 5.1099893000e-04 0.0000e+00 1.0000e+00
<vert_displacement>
161.86143514434775
</vert_displacement>
</event>
<event>
 4   1200 +8.5212000e+10 6.20884500e-03 7.81665300e-03            nan
       50 -1    0    0    0    0 -6.4885086095e-03 -1.3418032937e-02 +8.1618580278e+00 8.1618731640e+00 4.9935713700e-03 0.0000e+00 0.0000e+00
       11 -1    0    0    0    0 -7.9985888678e-19 -1.6540831698e-18 +1.0061379385e-15 5.1100000000e-04 5.1099893000e-04 0.0000e+00 1.0000e+00
       50  1    1    2    0    0 -7.0419039546e-03 -9.7497461482e-03 +8.1485199432e+00 8.1485303489e+00 4.9935713700e-03 0.0000e+00 0.0000e+00
       11  1    1    2    0    0 +5.5339534517e-04 -3.6682867891e-03 +1.3338084567e-02 1.3853815149e-02 5.1099893000e-04 0.0000e+00 1.0000e+00
<vert_displacement>
332.06068211094032
</vert_displacement>
</event>
<event>
 4   1200 +8.5212000e+10 3.72343700e-02 7.81665300e-03            nan
       50 -1    0    0    0    0 +3.9287500175e-03 -1.6567332722e-04 +1.0329891753e+01 1.0329893709e+01 4.9935713700e-03 0.0000e+00 0.0000e+00
       11 -1    0    0    0    0 -6.5976435723e-20 +2.7821916833e-21 -1.7347233503e-16 5.1100000000e-04 5.1099893000e-04 0.0000e+00 1.0000e+00
       50  1    1    2    0    0 -1.6545826881e-02 -3.1227107747e-02 +8.7578888901e+00 8.7579616146e+00 4.9935713700e-03 0.0000e+00 0.0000e+00
       11  1    1    2    0    0 +2.0474576898e-02 +3.1061434420e-02 +1.5720028633e+00 1.5724430941e+00 5.1099893000e-04 0.0000e+00 1.0000e+00
<vert_displacement>
232.76928263583974
</vert_displacement>
</event>
<event>
 4   1200 +8.5212000e+10 2.21121100e-02 7.81665300e-03            nan
       50 -1    0    0    0    0 -9.6383402672e-03 -5.1819255717e-03 +4.2529123315e+00 4.2529293416e+00 4.9935713700e-03 0.0000e+00 0.0000e+00
       11 -1    0    0    0    0 -7.0764777789e-19 -3.8045742465e-19 +3.1224919203e-16 5.1100000000e-04 5.1099893000e-04 0.0000e+00 1.0000e+00
       50  1    1    2    0    0 -1.4190329916e-03 -2.4907184865e-02 +3.7355331334e+00 3.7356197756e+00 4.9935713700e-03 0.0000e+00 0.0000e+00
       11  1    1    2    0    0 -8.2193072756e-03 +1.9725259294e-02 +5.1737919810e-01 5.1782056604e-01 5.1099893000e-04 0.0000e+00 1.0000e+00
<vert_displacement>
338.44669441299919
</vert_displacement>
</event>
<event>
 4   1200 +8.5212000e+10 6.27637300e-03 7.81665300e-03            nan
       50 -1    0    0    0    0 +5.1862236294e-03 +8.6636471452e-03 +5.4053254511e+00 5.4053371887e+00 4.9935713700e-03 0.0000e+00 0.0000e+00
       11 -1    0    0    0    0 -3.1956567039e-19 -5.3383818473e-19 -3.3306632626e-16 5.1100000000e-04 5.1099893000e-04 0.0000e+00 1.0000e+00
       50  1    1    2    0    0 +8.1493961325e-03 +6.2753534764e-03 +5.3911417888e+00 5.3911539132e+00 4.9935713700e-03 0.0000e+00 0.0000e+00
       11  1    1    2    0    0 -2.9631725031e-03 +2.3882936688e-03 +1.4183662246e-02 1.4694275503e-02 5.1099893000e-04 0.0000e+00 1.0000e+00
<vert_displacement>
444.83402498404087
</vert_displacement>
</event>
<event>
 4   1200 +8.5212000e+10 1.14144400e-02 7.81665300e-03            nan
       50 -1    0    0    0    0 +2.5070060834e-02 +2.7783416759e-02 +1.1795123477e+01 1.1795183898e+01 4.9935713700e-03 0.0000e+00 0.0000e+00
       11 -1    0    0    0    0 -2.6546878530e-19 -2.9420071803e-19 -1.2489946166e-16 5.1100000000e-04 5.1099893000e-04 0.0000e+00 1.0000e+00
       50  1    1    2    0    0 +2.3429790358e-02 +3.7704004077e-02 +1.1691093868e+01 1.1691179210e+01 4.9935713700e-03 0.0000e+00 0.0000e+00
       11  1    1    2    0    0 +1.6402704758e-03 -9.9205873179e-03 +1.0402960889e-01 1.0451568871e-01 5.1099893000e-04 0.0000e+00 1.0000e+00
<vert_displacement>
84.931242256705303
</vert_displacement>
</event>
<event>
 4   1200 +8.5212000e+10 2.48572200e-02 7.81665300e-03            nan
       50 -1    0    0    0    0 -1.3049537803e-02 +4.8962076257e-03 +4.5134835889e+00 4.5135078715e+00 4.9935713700e-03 0.0000e+00 0.0000e+00
       11 -1    0    0    0    0 +2.7083526165e-18 -1.0161782688e-18 -9.3674621062e-16 5.1100000000e-04 5.1099893000e-04 0.0000e+00 1.0000e+00
       50  1    1    2    0    0 -3.5158965331e-02 +7.7120733847e-03 +3.8287532834e+00 3.8289257331e+00 4.9935713700e-03 0.0000e+00 0.0000e+00
       11  1    1    2    0    0 +2.2109427528e-02 -2.8158657590e-03 +6.8473030548e-01 6.8509313837e-01 5.1099893000e-04 0.0000e+00 1.0000e+00
<vert_displacement>
467.45400984311169
</vert_displacement>
</event>
<event>
 4   1200 +8.5212000e+10 3.55272700e-02 7.81665300e-03            nan
       50 -1    0    0    0    0 -7.9163318267e-03 +2.2226698064e-02 +2.3724979407e+01 2.3724991665e+01 4.9935713700e-03 0.0000e+00 0.0000e+00
       11 -1    0    0    0    0 +6.2976291463e-19 -1.7681863850e-18 -1.8873782085e-15 5.1100000000e-04 5.1099893000e-04 0.0000e+00 1.0000e+00
       50  1    1    2    0    0 -1.1219479244e-02 -1.3948449852e-02 +2.2445267161e+01 2.2445274855e+01 4.9935713700e-03 0.0000e+00 0.0000e+00
       11  1    1    2    0    0 +3.3031474169e-03 +3.6175147916e-02 +1.2797122463e+00 1.2802278104e+00 5.1099893000e-04 0.0000e+00 1.0000e+00
<vert_displacement>
18.043687176668332
</vert_displacement>
</event>
<event>
 4   1200 +8.5212000e+10 1.07064400e-02 7.81665300e-03            nan
       50 -1    0    0    0    0 +6.6416362776e-04 -9.3276734755e-03 +1.8535040028e+01 1.8535043060e+01 4.9935713700e-03 0.0000e+00 0.0000e+00
       11 -1    0    0    0    0 -5.0225367282e-20 +7.0537711884e-19 -1.4016563902e-15 5.1100000000e-04 5.1099893000e-04 0.0000e+00 1.0000e+00
       50  1    1    2    0    0 +9.1316038032e-03 -1.3518978146e-02 +1.8446853755e+01 1.8446861645e+01 4.9935713700e-03 0.0000e+00 0.0000e+00
       11  1    1    2    0    0 -8.4674401754e-03 +4.1913046703e-03 +8.8186273363e-02 8.8692415163e-02 5.1099893000e-04 0.0000e+00 1.0000e+00
<vert_displacement>
328.20506100624772
</vert_displacement>
</event>
<event>
 4   1200 +8.5212000e+10 1.41903600e-02 7.81665300e-03            nan
       50 -1    0    0    0    0 +3.5544963206e-02 +7.4048305210e-03 +2.2374511030e+01 2.2374541046e+01 4.9935713700e-03 0.0000e+00 0.0000e+00
       11 -1    0    0    0    0 +3.7920375906e-18 +7.8996834304e-19 +2.3869763601e-15 5.1100000000e-04 5.1099893000e-04 0.0000e+00 1.0000e+00
       50  1    1    2    0    0 +2.2076134211e-02 +5.8012821498e-03 +2.2200541789e+01 2.2200554085e+01 4.9935713700e-03 0.0000e+00 0.0000e+00
       11  1    1    2    0    0 +1.3468828995e-02 +1.6035483712e-03 +1.7396924056e-01 1.7449796131e-01 5.1099893000e-04 0.0000e+00 1.0000e+00
<vert_displacement>
308.11314619198481
</vert_displacement>
</event>
<event>
 4   1200 +8.5212000e+10 6.65243300e-03 7.81665300e-03            nan
       50 -1    0    0    0    0 +5.7093892957e-03 +2.4025507324e-04 +4.6489504296e+00 4.6489566235e+00 4.9935713700e-03 0.0000e+00 0.0000e+00
       11 -1    0    0    0    0 -5.6243015247e-19 -2.3667452065e-20 -4.5796665169e-16 5.1100000000e-04 5.1099893000e-04 0.0000e+00 1.0000e+00
       50  1    1    2    0    0 +9.8946100328e-03 +1.5070790584e-03 +4.6299619598e+00 4.6299754708e+00 4.9935713700e-03 0.0000e+00 0.0000e+00
       11  1    1    2    0    0 -4.1852207371e-03 -1.2668239852e-03 +1.8988469756e-02 1.9492152760e-02 5.1099893000e-04 0.0000e+00 1.0000e+00
<vert_displacement>
398.97689561789855
</vert_displacement>
</event>
<event>
 4   1200 +8.5212000e+10 1.73118300e-02 7.81665300e-03            nan
       50 -1    0    0    0    0 +8.7870322596e-04 +3.2032243070e-03 +1.3267431336e+00 1.3267566887e+00 4.9935713700e-03 0.0000e+00 0.0000e+00
       11 -1    0    0    0    0 -6.6636512631e-20 -2.4291671031e-19 -1.0061364630e-16 5.1100000000e-04 5.1099893000e-04 0.0000e+00 1.0000e+00
       50  1    1    2    0    0 -2.4946819715e-03 +1.8566372311e-02 +9.4725410141e-01 9.4745248008e-01 4.9935713700e-03 0.0000e+00 0.0000e+00
       11  1    1    2    0    0 +3.3733851974e-03 -1.5363148004e-02 +3.7948903215e-01 3.7981520860e-01 5.1099893000e-04 0.0000e+00 1.0000e+00
<vert_displacement>
353.46889999220343
</vert_displacement>
</event>
<event>
 4   1200 +8.5212000e+10 1.19489100e-02 7.81665300e-03            nan
       50 -1    0    0    0    0 +7.3634460514e-02 +7.5737271060e-03 +2.3060958180e+01 2.3061077522e+01 4.9935713700e-03 0.0000e+00 0.0000e+00
       11 -1    0    0    0    0 -1.2540307967e-17 -1.2898426865e-18 -3.9273937170e-15 5.1100000000e-04 5.1099893000e-04 0.0000e+00 1.0000e+00
       50  1    1    2    0    0 +6.6542710416e-02 -9.8834420181e-04 +2.2945093413e+01 2.2945190467e+01 4.9935713700e-03 0.0000e+00 0.0000e+00
       11  1    1    2    0    0 +7.0917500984e-03 +8.5620713078e-03 +1.1586476662e-01 1.1639805517e-01 5.1099893000e-04 0.0000e+00 1.0000e+00
<vert_displacement>
291.26737560251740
</vert_displacement>
</event>
<event>
 4   1200 +8.5212000e+10 1.63700600e-02 7.81665300e-03            nan
       50 -1    0    0    0    0 -3.2820622822e-02 -4.1929195872e-02 +2.9729244008e+01 2.9729292112e+01 4.9935713700e-03 0.0000e+00 0.0000e+00
       11 -1    0    0    0    0 +3.9834176821e-19 +5.0889192791e-19 -3.6082190426e-16 5.1100000000e-04 5.1099893000e-04 0.0000e+00 1.0000e+00
       50  1    1    2    0    0 -3.9046201519e-02 -2.7416453264e-02 +2.9489506850e+01 2.9489545867e+01 4.9935713700e-03 0.0000e+00 0.0000e+00
       11  1    1    2    0    0 +6.2255786969e-03 -1.4512742608e-02 +2.3973715801e-01 2.4025724459e-01 5.1099893000e-04 0.0000e+00 1.0000e+00
<vert_displacement>
449.36881020570172
</vert_displacement>
</event>
<event>
 4   1200 +8.5212000e+10 3.00160500e-02 7.81665300e-03            nan
       50 -1    0    0    0    0 -2.3892307678e-02 +3.0398740678e-02 +1.3725404504e+01 1.3725459870e+01 4.9935713700e-03 0.0000e+00 0.0000e+00
       11 -1    0    0    0    0 -2.4157470953e-20 +3.0736114102e-20 +1.3877732745e-17 5.1100000000e-04 5.1099893000e-04 0.0000e+00 1.0000e+00
       50  1    1    2    0    0 +1.5914495098e-03 +1.0883510525e-02 +1.2806670168e+01 1.2806675865e+01 4.9935713700e-03 0.0000e+00 0.0000e+00
       11  1    1    2    0    0 -2.5483757188e-02 +1.9515230153e-02 +9.1873433567e-01 9.1929500529e-01 5.1099893000e-04 0.0000e+00 1.0000e+00
<vert_displacement>
154.50808614995654
</vert_displacement>
</event>
<event>
 4   1200 +8.5212000e+10 8.44675500e-03 7.81665300e-03            nan
       50 -1    0    0    0    0 +6.9117280839e-02 +3.8617287535e-02 +2.5725252185e+01 2.5725374505e+01 4.9935713700e-03 0.0000e+00 0.0000e+00
       11 -1    0    0    0    0 +2.9828758379e-19 +1.6665958573e-19 +1.1102177666e-16 5.1100000000e-04 5.1099893000e-04 0.0000e+00 1.0000e+00
       50  1    1    2    0    0 +6.6439799867e-02 +3.2233746972e-02 +2.5679774476e+01 2.5679881140e+01 4.9935713700e-03 0.0000e+00 0.0000e+00
       11  1    1    2    0    0 +2.6774809715e-03 +6.3835405628e-03 +4.5477708652e-02 4.6004364995e-02 5.1099893000e-04 0.0000e+00 1.0000e+00
<vert_displacement>
293.51692330216986
</vert_displacement>
</event>
<event>
 4   1200 +8.5212000e+10 1.30854100e-02 7.81665300e-03            nan
       50 -1    0    0    0    0 -6.8523796520e-03 -1.1246840160e-02 +4.4322952029e+00 4.4323175820e+00 4.9935713700e-03 0.0000e+00 0.0000e+00
       11 -1    0    0    0    0 +9.8693578506e-19 +1.6198619438e-18 -6.3837542108e-16 5.1100000000e-04 5.1099893000e-04 0.0000e+00 1.0000e+00
       50  1    1    2    0    0 -9.6504057286e-05 -6.8806425095e-04 +4.2841940911e+00 4.2841970577e+00 4.9935713700e-03 0.0000e+00 0.0000e+00
       11  1    1    2    0    0 -6.7558755947e-03 -1.0558775909e-02 +1.4810111179e-01 1.4863152437e-01 5.1099893000e-04 0.0000e+00 1.0000e+00
<vert_displacement>
76.437766023370287
</vert_displacement>
</event>
<event>
 4   1200 +8.5212000e+10 3.11428600e-02 7.81665300e-03            nan
       50 -1    0    0    0    0 -6.1153795048e-03 +7.3420254592e-03 +2.1194178281e+01 2.1194181023e+01 4.9935713700e-03 0.0000e+00 0.0000e+00
       11 -1    0    0    0    0 +1.0411190110e-19 -1.2499506006e-19 -3.6082244633e-16 5.1100000000e-04 5.1099893000e-04 0.0000e+00 1.0000e+00
       50  1    1    2    0    0 +1.6592549974e-02 -1.4015329627e-02 +2.0225218216e+01 2.0225230495e+01 4.9935713700e-03 0.0000e+00 0.0000e+00
       11  1    1    2    0    0 -2.2707929479e-02 +2.1357355086e-02 +9.6896006497e-01 9.6946152853e-01 5.1099893000e-04 0.0000e+00 1.0000e+00
<vert_displacement>
274.62547828293890
</vert_displacement>
</event>
<event>
 4   1200 +8.5212000e+10 2.64458700e-02 7.81665300e-03            nan
       50 -1    0    0    0    0 -1.0521672191e-02 -7.0933208129e-03 +3.0699444172e+00 3.0699747037e+00 4.9935713700e-03 0.0000e+00 0.0000e+00
       11 -1    0    0    0    0 +4.6374090271e-19 +3.1263690193e-19 -1.3530727525e-16 5.1100000000e-04 5.1099893000e-04 0.0000e+00 1.0000e+00
       50  1    1    2    0    0 -2.0945927897e-02 -2.6897144408e-02 +2.1027786570e+00 2.1030609131e+00 4.9935713700e-03 0.0000e+00 0.0000e+00
       11  1    1    2    0    0 +1.0424255706e-02 +1.9803823595e-02 +9.6716576023e-01 9.6742479058e-01 5.1099893000e-04 0.0000e+00 1.0000e+00
<vert_displacement>
191.79637659542351
</vert_displacement>
</event>
<event>
 4   1200 +8.5212000e+10 8.30679400e-03 7.81665300e-03            nan
       50 -1    0    0    0    0 -3.7071437447e-02 +3.7091827031e-02 +3.9698350945e+01 3.9698385896e+01 4.9935713700e-03 0.0000e+00 0.0000e+00
       11 -1    0    0    0    0 +1.5551349056e-19 -1.5559902421e-19 -1.6653330839e-16 5.1100000000e-04 5.1099893000e-04 0.0000e+00 1.0000e+00
       50  1    1    2    0    0 -4.3495045957e-02 +3.5539936737e-02 +3.9655180378e+01 3.9655220472e+01 4.9935713700e-03 0.0000e+00 0.0000e+00
       11  1    1    2    0    0 +6.4236085099e-03 +1.5518902940e-03 +4.3170566977e-02 4.3676424794e-02 5.1099893000e-04 0.0000e+00 1.0000e+00
<vert_displacement>
357.76524168805150
</vert_displacement>
</event>
<event>
 4   1200 +8.5212000e+10 5.01370700e-03 7.81665300e-03            nan
       50 -1    0    0    0    0 +1.5028987655e-03 -2.2108975607e-03 +1.7772720756e+00 1.7772811014e+00 4.9935713700e-03 0.0000e+00 0.0000e+00
       11 -1    0    0    0    0 -5.2809016047e-20 +7.7686752721e-20 -6.2449974486e-17 5.1100000000e-04 5.1099893000e-04 0.0000e+00 1.0000e+00
       50  1    1    2    0    0 +1.8481936179e-03 -2.4972877609e-03 +1.7770741821e+00 1.7770839138e+00 4.9935713700e-03 0.0000e+00 0.0000e+00
       11  1    1    2    0    0 -3.4529485239e-04 +2.8639020022e-04 +1.9789351972e-04 7.0818756942e-04 5.1099893000e-04 0.0000e+00 1.0000e+00
<vert_displacement>
493.47203171213323
</vert_displacement>
</event>
<event>
 4   1200 +8.5212000e+10 5.89354500e-03 7.81665300e-03            nan
       50 -1    0    0    0    0 +5.7294609812e-02 +2.7663292002e-02 +2.3258285386e+01 2.3258372943e+01 4.9935713700e-03 0.0000e+00 0.0000e+00
       11 -1    0    0    0    0 +4.8544835446e-18 +2.3438678831e-18 +1.9706384955e-15 5.1100000000e-04 5.1099893000e-04 0.0000e+00 1.0000e+00
       50  1    1    2    0    0 +5.9102917706e-02 +2.5113749860e-02 +2.3248692563e+01 2.3248781789e+01 4.9935713700e-03 0.0000e+00 0.0000e+00
       11  1    1    2    0    0 -1.8083078939e-03 +2.5495421424e-03 +9.5928234403e-03 1.0102154426e-02 5.1099893000e-04 0.0000e+00 1.0000e+00
<vert_displacement>
210.83776561504177
</vert_displacement>
</event>
<event>
 4   1200 +8.5212000e+10 1.03726300e-02 7.81665300e-03            nan
       50 -1    0    0    0    0 -9.3060858084e-02 +2.1616813427e-02 +2.8718694504e+01 2.8718853851e+01 4.9935713700e-03 0.0000e+00 0.0000e+00
       11 -1    0    0    0    0 +2.4283649642e-18 -5.6407724414e-19 -7.4939639487e-16 5.1100000000e-04 5.1099893000e-04 0.0000e+00 1.0000e+00
       50  1    1    2    0    0 -8.8608181260e-02 +1.3487281173e-02 +2.8637607496e+01 2.8637748189e+01 4.9935713700e-03 0.0000e+00 0.0000e+00
       11  1    1    2    0    0 -4.4526768242e-03 +8.1295322545e-03 +8.1087007379e-02 8.1616661970e-02 5.1099893000e-04 0.0000e+00 1.0000e+00
<vert_displacement>
112.04236158765828
</vert_displacement>
</event>
<event>
 4   1200 +8.5212000e+10 7.96201900e-03 7.81665300e-03            nan
       50 -1    0    0    0    0 +8.7213055255e-03 +2.0679925205e-02 +8.7349230436e+00 8.7349533047e+00 4.9935713700e-03 0.0000e+00 0.0000e+00
       11 -1    0    0    0    0 +3.8104294136e-19 +9.0352751710e-19 +3.8163790494e-16 5.1100000000e-04 5.1099893000e-04 0.0000e+00 1.0000e+00
       50  1    1    2    0    0 +1.0877052265e-02 +2.6390991675e-02 +8.6971109102e+00 8.6971591865e+00 4.9935713700e-03 0.0000e+00 0.0000e+00
       11  1    1    2    0    0 -2.1557467399e-03 -5.7110664699e-03 +3.7812133438e-02 3.8305118186e-02 5.1099893000e-04 0.0000e+00 1.0000e+00
<vert_displacement>
233.26043296744353
</vert_displacement>
</event>
<event>
 4   1200 +8.5212000e+10 1.91170800e-02 7.81665300e-03            nan
       50 -1    0    0    0    0 -4.8431740164e-02 -2.3392563375e-02 +4.5885594929e+01 4.5885626723e+01 4.9935713700e-03 0.0000e+00 0.0000e+00
       11 -1    0    0    0    0 +1.9188673215e-18 +9.2681421882e-19 -1.8179889539e-15 5.1100000000e-04 5.1099893000e-04 0.0000e+00 1.0000e+00
       50  1    1    2    0    0 -3.7631452039e-02 -3.8433547946e-02 +4.5549941264e+01 4.5549973297e+01 4.9935713700e-03 0.0000e+00 0.0000e+00
       11  1    1    2    0    0 -1.0800288126e-02 +1.5040984571e-02 +3.3565366440e-01 3.3616442552e-01 5.1099893000e-04 0.0000e+00 1.0000e+00
<vert_displacement>
295.63840671763182
</vert_displacement>
</event>
<event>
 4   1200 +8.5212000e+10 2.19974200e-02 7.81665300e-03            nan
       50 -1    0    0    0    0 +6.7107237106e-02 +3.6236365224e-02 +5.4265008424e+01 5.4265062247e+01 4.9935713700e-03 0.0000e+00 0.0000e+00
       11 -1    0    0    0    0 +7.7229248993e-19 +4.1702018936e-19 +6.2449983459e-16 5.1100000000e-04 5.1099893000e-04 0.0000e+00 1.0000e+00
       50  1    1    2    0    0 +4.7369978847e-02 +4.5483015683e-02 +5.3812169786e+01 5.3812210089e+01 4.9935713700e-03 0.0000e+00 0.0000e+00
       11  1    1    2    0    0 +1.9737258259e-02 -9.2466504584e-03 +4.5283863778e-01 4.5336315785e-01 5.1099893000e-04 0.0000e+00 1.0000e+00
<vert_displacement>
71.710493457492717
</vert_displacement>
</event>
<event>
 4   1200 +8.5212000e+10 6.28743900e-03 7.81665300e-03            nan
       50 -1    0    0    0    0 +5.0077046259e-02 +4.0788954489e-02 +1.7375611625e+01 1.7375732380e+01 4.9935713700e-03 0.0000e+00 0.0000e+00
       11 -1    0    0    0    0 -9.1990648897e-19 -7.4928588477e-19 -3.1918691452e-16 5.1100000000e-04 5.1099893000e-04 0.0000e+00 1.0000e+00
       50  1    1    2    0    0 +4.8746444389e-02 +4.4351723609e-02 +1.7361312868e+01 1.7361438671e+01 4.9935713700e-03 0.0000e+00 0.0000e+00
       11  1    1    2    0    0 +1.3306018702e-03 -3.5627691197e-03 +1.4298757218e-02 1.4804708812e-02 5.1099893000e-04 0.0000e+00 1.0000e+00
<vert_displacement>
233.41344613807115
</vert_displacement>
</event>
<event>
 4   1200 +8.5212000e+10 5.86968700e-02 7.81665300e-03            nan
       50 -1    0    0    0    0 +3.2307193154e-02 +1.2394415384e-02 +1.4545772929e+01 1.4545814945e+01 4.9935713700e-03 0.0000e+00 0.0000e+00
       11 -1    0    0    0    0 +5.8564580866e-19 +2.2467867716e-19 +2.6367722225e-16 5.1100000000e-04 5.1099893000e-04 0.0000e+00 1.0000e+00
       50  1    1    2    0    0 +6.3829714175e-02 +3.0937492224e-02 +5.2556022737e+00 5.2560832904e+00 4.9935713700e-03 0.0000e+00 0.0000e+00
       11  1    1    2    0    0 -3.1522521021e-02 -1.8543076839e-02 +9.2901706548e+00 9.2902426541e+00 5.1099893000e-04 0.0000e+00 1.0000e+00
<vert_displacement>
291.55986554449981
</vert_displacement>
</event>
<event>
 4   1200 +8.5212000e+10 1.18323400e-02 7.81665300e-03            nan
       50 -1    0    0    0    0 +1.3002052081e-02 -1.0575488732e-02 +4.7793349284e+00 4.7793669234e+00 4.9935713700e-03 0.0000e+00 0.0000e+00
       11 -1    0    0    0    0 -2.4540045533e-19 +1.9960155012e-19 -9.0205066115e-17 5.1100000000e-04 5.1099893000e-04 0.0000e+00 1.0000e+00
       50  1    1    2    0    0 +2.1716135066e-02 -4.5267711441e-03 +4.6639195851e+00 4.6639750121e+00 4.9935713700e-03 0.0000e+00 0.0000e+00
       11  1    1    2    0    0 -8.7140829845e-03 -6.0487175876e-03 +1.1541534339e-01 1.1590291125e-01 5.1099893000e-04 0.0000e+00 1.0000e+00
<vert_displacement>
375.85295864561823
</vert_displacement>
</event>
<event>
 4   1200 +8.5212000e+10 1.46482300e-02 7.81665300e-03            nan
       50 -1    0    0    0    0 -3.4004401637e-02 +1.3783525620e-03 +9.7703092790e+00 9.7703698262e+00 4.9935713700e-03 0.0000e+00 0.0000e+00
       11 -1    0    0    0    0 +1.0625934013e-18 -4.3071727971e-20 -3.0530947962e-16 5.1100000000e-04 5.1099893000e-04 0.0000e+00 1.0000e+00
       50  1    1    2    0    0 -4.6937264544e-02 -8.6293464736e-04 +9.5810267925e+00 9.5811431044e+00 4.9935713700e-03 0.0000e+00 0.0000e+00
       11  1    1    2    0    0 +1.2932862908e-02 +2.2412872094e-03 +1.8928248643e-01 1.8973772187e-01 5.1099893000e-04 0.0000e+00 1.0000e+00
<vert_displacement>
34.360745959298519
</vert_displacement>
</event>
<event>
 4   1200 +8.5212000e+10 1.02639600e-02 7.81665300e-03            nan
       50 -1    0    0    0    0 +1.5842640615e-02 -6.7494832927e-03 +4.7267085044e+00 4.7267425111e+00 4.9935713700e-03 0.0000e+00 0.0000e+00
       11 -1    0    0    0    0 +2.3257129719e-19 -9.9082982625e-20 +6.9388478540e-17 5.1100000000e-04 5.1099893000e-04 0.0000e+00 1.0000e+00
       50  1    1    2    0    0 +7.3485001487e-03 -3.0647484943e-03 +4.6466882442e+00 4.6466977487e+00 4.9935713700e-03 0.0000e+00 0.0000e+00
       11  1    1    2    0    0 +8.4941404660e-03 -3.6847347985e-03 +8.0020260133e-02 8.0555762329e-02 5.1099893000e-04 0.0000e+00 1.0000e+00
<vert_displacement>
490.94791191954289
</vert_displacement>
</event>
<event>
 4   1200 +8.5212000e+10 2.31755300e-02 7.81665300e-03            nan
       50 -1    0    0    0    0 +2.5917846587e-02 +1.3237956102e-02 +7.5355038128e+00 7.5355616663e+00 4.9935713700e-03 0.0000e+00 0.0000e+00
       11 -1    0    0    0    0 +2.1479102902e-19 +1.0970796527e-19 +6.2449579393e-17 5.1100000000e-04 5.1099893000e-04 0.0000e+00 1.0000e+00
       50  1    1    2    0    0 +3.5336905643e-02 -7.3324435514e-03 +6.9955048448e+00 6.9955997192e+00 4.9935713700e-03 0.0000e+00 0.0000e+00
       11  1    1    2    0    0 -9.4190590558e-03 +2.0570399653e-02 +5.3999896803e-01 5.4047294716e-01 5.1099893000e-04 0.0000e+00 1.0000e+00
<vert_displacement>
19.797659046482899
</vert_displacement>
</event>
<event>
 4   1200 +8.5212000e+10 9.60671200e-03 7.81665300e-03            nan
       50 -1    0    0    0    0 +4.5982539250e-02 -7.2683419340e-04 +2.0022360540e+01 2.0022413977e+01 4.9935713700e-03 0.0000e+00 0.0000e+00
       11 -1    0    0    0    0 -8.2864806024e-19 +1.3098227160e-20 -3.6082153125e-16 5.1100000000e-04 5.1099893000e-04 0.0000e+00 1.0000e+00
       50  1    1    2    0    0 +3.8139877983e-02 +2.1398922518e-03 +1.9956254876e+01 1.9956292061e+01 4.9935713700e-03 0.0000e+00 0.0000e+00
       11  1    1    2    0    0 +7.8426612671e-03 -2.8667264452e-03 +6.6105664337e-02 6.6632915542e-02 5.1099893000e-04 0.0000e+00 1.0000e+00
<vert_displacement>
317.69651528150763
</vert_displacement>
</event>
<event>
 4   1200 +8.5212000e+10 1.05727200e-02 7.81665300e-03            nan
       50 -1    0    0    0    0 +6.0281293581e-03 -1.4681434924e-03 +2.4404101598e+00 2.4404231555e+00 4.9935713700e-03 0.0000e+00 0.0000e+00
       11 -1    0    0    0    0 +3.8564801534e-19 -9.3924099904e-20 +1.5612460829e-16 5.1100000000e-04 5.1099893000e-04 0.0000e+00 1.0000e+00
       50  1    1    2    0    0 +4.9667901666e-03 -1.0695978925e-02 +2.3521915486e+00 2.3522264113e+00 4.9935713700e-03 0.0000e+00 0.0000e+00
       11  1    1    2    0    0 +1.0613391915e-03 +9.2278354323e-03 +8.8218611198e-02 8.8707744134e-02 5.1099893000e-04 0.0000e+00 1.0000e+00
<vert_displacement>
311.90224951975364
</vert_displacement>
</event>
<event>
 4   1200 +8.5212000e+10 9.43229900e-03 7.81665300e-03            nan
       50 -1    0    0    0    0 +9.4522259159e-03 +7.7131470974e-02 +3.0362286381e+01 3.0362386234e+01 4.9935713700e-03 0.0000e+00 0.0000e+00
       11 -1    0    0    0    0 +6.3077038823e-19 +5.1471736207e-18 +2.0261503839e-15 5.1100000000e-04 5.1099893000e-04 0.0000e+00 1.0000e+00
       50  1    1    2    0    0 +8.1422626015e-03 +6.9074701474e-02 +3.0299521943e+01 3.0299602184e+01 4.9935713700e-03 0.0000e+00 0.0000e+00
       11  1    1    2    0    0 +1.3099633145e-03 +8.0567695002e-03 +6.2764438026e-02 6.3295049879e-02 5.1099893000e-04 0.0000e+00 1.0000e+00
<vert_displacement>
435.17085385186817
</vert_displacement>
</event>
<event>
 4   1200 +8.5212000e+10 6.69201200e-03 7.81665300e-03            nan
       50 -1    0    0    0    0 -1.1386647521e-02 -1.5503493291e-02 +1.0669646210e+01 1.0669664718e+01 4.9935713700e-03 0.0000e+00 0.0000e+00
       11 -1    0    0    0    0 -1.1552074943e-18 -1.5728731047e-18 +1.0824656899e-15 5.1100000000e-04 5.1099893000e-04 0.0000e+00 1.0000e+00
       50  1    1    2    0    0 -7.3468844059e-03 -1.3553017234e-02 +1.0650196798e+01 1.0650209126e+01 4.9935713700e-03 0.0000e+00 0.0000e+00
       11  1    1    2    0    0 -4.0397631147e-03 -1.9504760564e-03 +1.9449412388e-02 1.9966592223e-02 5.1099893000e-04 0.0000e+00 1.0000e+00
<vert_displacement>
209.42398667126145
</vert_displacement>
</event>
<event>
 4   1200 +8.5212000e+10 1.74292700e-02 7.81665300e-03            nan
       50 -1    0    0    0    0 -9.1084178823e-03 +6.2682904222e-03 +5.3421611440e+00 5.3421749203e+00 4.9935713700e-03 0.0000e+00 0.0000e+00
       11 -1    0    0    0    0 +5.9154159001e-20 -4.0709094937e-20 -3.4694395207e-17 5.1100000000e-04 5.1099893000e-04 0.0000e+00 1.0000e+00
       50  1    1    2    0    0 -2.2026014230e-02 +1.5880989731e-02 +5.0536070392e+00 5.0536824587e+00 4.9935713700e-03 0.0000e+00 0.0000e+00
       11  1    1    2    0    0 +1.2917596348e-02 -9.6126993093e-03 +2.8855410477e-01 2.8900346154e-01 5.1099893000e-04 0.0000e+00 1.0000e+00
<vert_displacement>
389.99670831057682
</vert_displacement>
</event>
<event>
 4   1200 +8.5212000e+10 6.32770300e-03 7.81665300e-03            nan
       50 -1    0    0    0    0 -3.7273060334e-02 +1.0870199447e-03 +1.8880457469e+01 1.8880494952e+01 4.9935713700e-03 0.0000e+00 0.0000e+00
       11 -1    0    0    0    0 -1.9177852549e-18 +5.5929693004e-20 +9.7144325193e-16 5.1100000000e-04 5.1099893000e-04 0.0000e+00 1.0000e+00
       50  1    1    2    0    0 -3.8598532912e-02 -2.5564862862e-03 +1.8865664092e+01 1.8865704412e+01 4.9935713700e-03 0.0000e+00 0.0000e+00
       11  1    1    2    0    0 +1.3254725787e-03 +3.6435062310e-03 +1.4793376436e-02 1.5301539841e-02 5.1099893000e-04 0.0000e+00 1.0000e+00
<vert_displacement>
343.82383526357557
</vert_displacement>
</event>
<event>
 4   1200 +8.5212000e+10 1.88154000e-02 7.81665300e-03            nan
       50 -1    0    0    0    0 -3.4888232961e-02 +3.1718019889e-02 +1.6278872609e+01 1.6278941660e+01 4.9935713700e-03 0.0000e+00 0.0000e+00
       11 -1    0    0    0    0 -6.3648305130e-18 +5.7864730789e-18 +2.9698341332e-15 5.1100000000e-04 5.1099893000e-04 0.0000e+00 1.0000e+00
       50  1    1    2    0    0 -2.6032595753e-02 +4.7283836582e-02 +1.5950205192e+01 1.5950297303e+01 4.9935713700e-03 0.0000e+00 0.0000e+00
       11  1    1    2    0    0 -8.8556372078e-03 -1.5565816694e-02 +3.2866741637e-01 3.2915535643e-01 5.1099893000e-04 0.0000e+00 1.0000e+00
<vert_displacement>
340.62912892895116
</vert_displacement>
</event>
<event>
 4   1200 +8.5212000e+10 5.04195600e-02 7.81665300e-03            nan
       50 -1    0    0    0    0 +5.4797842021e-02 +3.9402235576e-03 +3.0761241404e+01 3.0761290870e+01 4.9935713700e-03 0.0000e+00 0.0000e+00
       11 -1    0    0    0    0 -3.2632705337e-18 -2.3464455821e-19 -1.8318650690e-15 5.1100000000e-04 5.1099893000e-04 0.0000e+00 1.0000e+00
       50  1    1    2    0    0 +7.8797057780e-02 -3.7481311839e-02 +2.8060929154e+01 2.8061065264e+01 4.9935713700e-03 0.0000e+00 0.0000e+00
       11  1    1    2    0    0 -2.3999215760e-02 +4.1421535397e-02 +2.7003122504e+00 2.7007366063e+00 5.1099893000e-04 0.0000e+00 1.0000e+00
<vert_displacement>
253.05436677551251
</vert_displacement>
</event>
<event>
 4   1200 +8.5212000e+10 1.89065500e-02 7.81665300e-03            nan
       50 -1    0    0    0    0 -4.2229919159e-02 -3.3874699986e-02 +1.6556250255e+01 1.6556339520e+01 4.9935713700e-03 0.0000e+00 0.0000e+00
       11 -1    0    0    0    0 -1.4159117314e-18 -1.1357726006e-18 +5.5510854463e-16 5.1100000000e-04 5.1099893000e-04 0.0000e+00 1.0000e+00
       50  1    1    2    0    0 -4.7087118594e-02 -5.0515328181e-02 +1.6224159116e+01 1.6224306855e+01 4.9935713700e-03 0.0000e+00 0.0000e+00
       11  1    1    2    0    0 +4.8571994356e-03 +1.6640628195e-02 +3.3209113913e-01 3.3254366436e-01 5.1099893000e-04 0.0000e+00 1.0000e+00
<vert_displacement>
12.618514182582770
</vert_displacement>
</event>
<event>
 4   1200 +8.5212000e+10 1.65433400e-02 7.81665300e-03            nan
       50 -1    0    0    0    0 +5.2991965437e-02 -3.5659654421e-02 +1.6058791948e+01 1.6058919749e+01 4.9935713700e-03 0.0000e+00 0.0000e+00
       11 -1    0    0    0    0 +3.3430034410e-18 -2.2495928666e-18 +1.0130704966e-15 5.1100000000e-04 5.1099893000e-04 0.0000e+00 1.0000e+00
       50  1    1    2    0    0 +5.9763243902e-02 -2.1283809187e-02 +1.5811588813e+01 1.5811716870e+01 4.9935713700e-03 0.0000e+00 0.0000e+00
       11  1    1    2    0    0 -6.7712784644e-03 -1.4375845234e-02 +2.4720313454e-01 2.4771387928e-01 5.1099893000e-04 0.0000e+00 1.0000e+00
<vert_displacement>
308.56287171999077
</vert_displacement>
</event>
<event>
 4   1200 +8.5212000e+10 5.12162500e-03 7.81665300e-03            nan
       50 -1    0    0    0    0 -1.3529080674e-02 +3.0187212883e-02 +1.1572297554e+01 1.1572345913e+01 4.9935713700e-03 0.0000e+00 0.0000e+00
       11 -1    0    0    0    0 -3.2448689268e-19 +7.2402221133e-19 +2.7755462215e-16 5.1100000000e-04 5.1099893000e-04 0.0000e+00 1.0000e+00
       50  1    1    2    0    0 -1.3379075339e-02 +3.1312277311e-02 +1.1571027190e+01 1.1571078370e+01 4.9935713700e-03 0.0000e+00 0.0000e+00
       11  1    1    2    0    0 -1.5000533510e-04 -1.1250644281e-03 +1.2703639461e-03 1.7785432325e-03 5.1099893000e-04 0.0000e+00 1.0000e+00
<vert_displacement>
68.877116773454347
</vert_displacement>
</event>
<event>
 4   1200 +8.5212000e+10 4.37043800e-02 7.81665300e-03            nan
       50 -1    0    0    0    0 +5.3106683940e-02 +2.9959119246e-02 +1.8286576592e+01 1.8286678929e+01 4.9935713700e-03 0.0000e+00 0.0000e+00
       11 -1    0    0    0    0 -3.8287605702e-18 -2.1599219906e-18 -1.3183825128e-15 5.1100000000e-04 5.1099893000e-04 0.0000e+00 1.0000e+00
       50  1    1    2    0    0 +4.1139829518e-03 +2.0167032461e-02 +1.6204770187e+01 1.6204784028e+01 4.9935713700e-03 0.0000e+00 0.0000e+00
       11  1    1    2    0    0 +4.8992700988e-02 +9.7920867846e-03 +2.0818064051e+00 2.0824059016e+00 5.1099893000e-04 0.0000e+00 1.0000e+00
<vert_displacement>
376.53393251774486
</vert_displacement>
</event>
<event>
 4   1200 +8.5212000e+10 4.99341400e-02 7.81665300e-03            nan
       50 -1    0    0    0    0 -1.7042230545e-02 +6.5428088523e-03 +2.0003633925e+01 2.0003642878e+01 4.9935713700e-03 0.0000e+00 0.0000e+00
       11 -1    0    0    0    0 +1.7498439298e-18 -6.7179553309e-19 -2.0539117403e-15 5.1100000000e-04 5.1099893000e-04 0.0000e+00 1.0000e+00
       50  1    1    2    0    0 +1.1760534097e-02 -3.6460972056e-02 +1.7192813660e+01 1.7192857069e+01 4.9935713700e-03 0.0000e+00 0.0000e+00
       11  1    1    2    0    0 -2.8802764642e-02 +4.3003780908e-02 +2.8108202647e+00 2.8112968086e+00 5.1099893000e-04 0.0000e+00 1.0000e+00
<vert_displacement>
369.66774359627738
</vert_displacement>
</event>
<event>
 4   1200 +8.5212000e+10 5.89346600e-03 7.81665300e-03            nan
       50 -1    0    0    0    0 -5.5458502018e-02 +9.3368709955e-03 +1.7927609772e+01 1.7927698678e+01 4.9935713700e-03 0.0000e+00 0.0000e+00
       11 -1    0    0    0    0 -3.0051204942e-18 +5.0593545370e-19 +9.7144036669e-16 5.1100000000e-04 5.1099893000e-04 0.0000e+00 1.0000e+00
       50  1    1    2    0    0 -5.3006008192e-02 +7.3501967281e-03 +1.7918026641e+01 1.7918107247e+01 4.9935713700e-03 0.0000e+00 0.0000e+00
       11  1    1    2    0    0 -2.4524938260e-03 +1.9866742674e-03 +9.5831303655e-03 1.0102430803e-02 5.1099893000e-04 0.0000e+00 1.0000e+00
<vert_displacement>
57.846204948460986
</vert_displacement>
</event>
<event>
 4   1200 +8.5212000e+10 2.09139600e-02 7.81665300e-03            nan
       50 -1    0    0    0    0 -1.8965169912e-03 -1.4838185821e-03 +5.4802085127e+00 5.4802113168e+00 4.9935713700e-03 0.0000e+00 0.0000e+00
       11 -1    0    0    0    0 +9.6052760678e-20 +7.5150853811e-20 -2.7755572936e-16 5.1100000000e-04 5.1099893000e-04 0.0000e+00 1.0000e+00
       50  1    1    2    0    0 +7.9581267369e-04 +1.8784572447e-02 +5.0412878443e+00 5.0413253771e+00 4.9935713700e-03 0.0000e+00 0.0000e+00
       11  1    1    2    0    0 -2.6923296649e-03 -2.0268391029e-02 +4.3892066845e-01 4.3939693971e-01 5.1099893000e-04 0.0000e+00 1.0000e+00
<vert_displacement>
383.38480120506932
</vert_displacement>
</event>
<event>
 4   1200 +8.5212000e+10 2.57723800e-02 7.81665300e-03            nan
       50 -1    0    0    0    0 -1.4544474413e-02 +8.1490448161e-04 +8.0833999770e+00 8.0834146455e+00 4.9935713700e-03 0.0000e+00 0.0000e+00
       11 -1    0    0    0    0 +1.6979793861e-18 -9.5135167632e-20 -9.4368803855e-16 5.1100000000e-04 5.1099893000e-04 0.0000e+00 1.0000e+00
       50  1    1    2    0    0 +1.2064563294e-03 +2.1444266678e-02 +7.3998952199e+00 7.3999280748e+00 4.9935713700e-03 0.0000e+00 0.0000e+00
       11  1    1    2    0    0 -1.5750930742e-02 -2.0629362196e-02 +6.8350475718e-01 6.8399757062e-01 5.1099893000e-04 0.0000e+00 1.0000e+00
<vert_displacement>
345.61421964371135
</vert_displacement>
</event>
<event>
 4   1200 +8.5212000e+10 8.50684800e-03 7.81665300e-03            nan
       50 -1    0    0    0    0 -7.1529156399e-02 +5.8727519662e-02 +2.5938945421e+01 2.5939111006e+01 4.9935713700e-03 0.0000e+00 0.0000e+00
       11 -1    0    0    0    0 -5.9699798403e-18 +4.9015272387e-18 +2.1649211180e-15 5.1100000000e-04 5.1099893000e-04 0.0000e+00 1.0000e+00
       50  1    1    2    0    0 -7.1707348962e-02 +6.5502411665e-02 +2.5892435266e+01 2.5892617895e+01 4.9935713700e-03 0.0000e+00 0.0000e+00
       11  1    1    2    0    0 +1.7819256243e-04 -6.7748920032e-03 +4.6510154044e-02 4.7004111132e-02 5.1099893000e-04 0.0000e+00 1.0000e+00
<vert_displacement>
444.06362897363346
</vert_displacement>
</event>
<event>
 4   1200 +8.5212000e+10 1.64853000e-02 7.81665300e-03            nan
       50 -1    0    0    0    0 +3.9985322769e-03 +3.0474939977e-03 +2.7410311706e+00 2.7410403298e+00 4.9935713700e-03 0.0000e+00 0.0000e+00
       11 -1    0    0    0    0 +5.6178369667e-19 +4.2816521791e-19 +3.8510796389e-16 5.1100000000e-04 5.1099893000e-04 0.0000e+00 1.0000e+00
       50  1    1    2    0    0 -3.1229034116e-03 -1.1446564143e-02 +2.4730627660e+00 2.4730962692e+00 4.9935713700e-03 0.0000e+00 0.0000e+00
       11  1    1    2    0    0 +7.1214356885e-03 +1.4494058141e-02 +2.6796840461e-01 2.6845506059e-01 5.1099893000e-04 0.0000e+00 1.0000e+00
<vert_displacement>
451.22699342497049
</vert_displacement>
</event>
<event>
 4   1200 +8.5212000e+10 2.43237700e-02 7.81665300e-03            nan
       50 -1    0    0    0    0 +2.6591906399e-02 -1.5670822822e-02 +2.4644828829e+01 2.4644848664e+01 4.9935713700e-03 0.0000e+00 0.0000e+00
       11 -1    0    0    0    0 -6.7383890709e-19 +3.9709864969e-19 -6.2449996156e-16 5.1100000000e-04 5.1099893000e-04 0.0000e+00 1.0000e+00
       50  1    1    2    0    0 +2.7972020299e-03 -2.0722169618e-02 +2.4077242935e+01 2.4077252533e+01 4.9935713700e-03 0.0000e+00 0.0000e+00
       11  1    1    2    0    0 +2.3794704369e-02 +5.0513467963e-03 +5.6758589404e-01 5.6810713100e-01 5.1099893000e-04 0.0000e+00 1.0000e+00
<vert_displacement>
21.697130307242897
</vert_displacement>
</event>
<event>
 4   1200 +8.5212000e+10 5.92437500e-03 7.81665300e-03            nan
       50 -1    0    0    0    0 +1.8934170386e-02 +9.4406626675e-03 +1.5473407116e+01 1.5473422386e+01 4.9935713700e-03 0.0000e+00 0.0000e+00
       11 -1    0    0    0    0 +1.6981660945e-18 +8.4671326628e-19 +1.3877774835e-15 5.1100000000e-04 5.1099893000e-04 0.0000e+00 1.0000e+00
       50  1    1    2    0    0 +1.9174838304e-02 +1.2612409261e-02 +1.5463454442e+01 1.5463472280e+01 4.9935713700e-03 0.0000e+00 0.0000e+00
       11  1    1    2    0    0 -2.4066791808e-04 -3.1717465940e-03 +9.9526737357e-03 1.0461105673e-02 5.1099893000e-04 0.0000e+00 1.0000e+00
<vert_displacement>
398.28057565248304
</vert_displacement>
</event>
<event>
 4   1200 +8.5212000e+10 1.00104700e-02 7.81665300e-03            nan
       50 -1    0    0    0    0 +4.8140239044e-02 -1.9308225825e-02 +1.9204780487e+01 1.9204851179e+01 4.9935713700e-03 0.0000e+00 0.0000e+00
       11 -1    0    0    0    0 +1.6349911710e-18 -6.5576697120e-19 +6.5225364812e-16 5.1100000000e-04 5.1099893000e-04 0.0000e+00 1.0000e+00
       50  1    1    2    0    0 +3.9299342054e-02 -1.9829446766e-02 +1.9130861502e+01 1.9130912795e+01 4.9935713700e-03 0.0000e+00 0.0000e+00
       11  1    1    2    0    0 +8.8408969904e-03 +5.2122094136e-04 +7.3918985757e-02 7.4449383517e-02 5.1099893000e-04 0.0000e+00 1.0000e+00
<vert_displacement>
92.777001968707467
</vert_displacement>
</event>
<event>
 4   1200 +8.5212000e+10 1.04183500e-02 7.81665300e-03            nan
       50 -1    0    0    0    0 -2.3441627731e-02 +1.6264212892e-02 +7.5019766122e+00 7.5020325286e+00 4.9935713700e-03 0.0000e+00 0.0000e+00
       11 -1    0    0    0    0 +4.3363982540e-20 -3.0086692442e-20 -1.3877687444e-17 5.1100000000e-04 5.1099893000e-04 0.0000e+00 1.0000e+00
       50  1    1    2    0    0 -1.4089078283e-02 +1.5134333862e-02 +7.4192804437e+00 7.4193109375e+00 4.9935713700e-03 0.0000e+00 0.0000e+00
       11  1    1    2    0    0 -9.3525494474e-03 +1.1298790305e-03 +8.2696168495e-02 8.3232591042e-02 5.1099893000e-04 0.0000e+00 1.0000e+00
<vert_displacement>
499.02919223213752
</vert_displacement>
</event>
<event>
 4   1200 +8.5212000e+10 2.69532600e-02 7.81665300e-03            nan
       50 -1    0    0    0    0 +1.2052706181e-02 +1.0076172982e-02 +5.0630292036e+00 5.0630560385e+00 4.9935713700e-03 0.0000e+00 0.0000e+00
       11 -1    0    0    0    0 +1.3214547022e-19 +1.1047482588e-19 +5.5510884013e-17 5.1100000000e-04 5.1099893000e-04 0.0000e+00 1.0000e+00
       50  1    1    2    0    0 +3.6581114174e-02 +9.0226072231e-03 +4.2430450578e+00 4.2432152766e+00 4.9935713700e-03 0.0000e+00 0.0000e+00
       11  1    1    2    0    0 -2.4528407993e-02 +1.0535657591e-03 +8.1998414578e-01 8.2035176190e-01 5.1099893000e-04 0.0000e+00 1.0000e+00
<vert_displacement>
150.99580256260731
</vert_displacement>
</event>
<event>
 4   1200 +8.5212000e+10 1.36783800e-02 7.81665300e-03            nan
       50 -1    0    0    0    0 +5.0175034378e-02 -6.9649923285e-02 +4.8643842290e+01 4.8643918287e+01 4.9935713700e-03 0.0000e+00 0.0000e+00
       11 -1    0    0    0    0 -2.2330784059e-18 +3.0998232804e-18 -2.1649315271e-15 5.1100000000e-04 5.1099893000e-04 0.0000e+00 1.0000e+00
       50  1    1    2    0    0 +6.2732912234e-02 -6.8864509566e-02 +4.8484635747e+01 4.8484725494e+01 4.9935713700e-03 0.0000e+00 0.0000e+00
       11  1    1    2    0    0 -1.2557877857e-02 -7.8541371952e-04 +1.5920654333e-01 1.5970379373e-01 5.1099893000e-04 0.0000e+00 1.0000e+00
<vert_displacement>
170.12418473549747
</vert_displacement>
</event>
<event>
 4   1200 +8.5212000e+10 5.65090100e-03 7.81665300e-03            nan
       50 -1    0    0    0    0 -1.8319840589e-03 +6.3958004862e-02 +2.6681580457e+01 2.6681657643e+01 4.9935713700e-03 0.0000e+00 0.0000e+00
       11 -1    0    0    0    0 -1.1148462956e-19 +3.8921378408e-18 +1.6236965048e-15 5.1100000000e-04 5.1099893000e-04 0.0000e+00 1.0000e+00
       50  1    1    2    0    0 -3.8005120247e-03 +6.2175250483e-02 +2.6674736382e+01 2.6674809581e+01 4.9935713700e-03 0.0000e+00 0.0000e+00
       11  1    1    2    0    0 +1.9685279657e-03 +1.7827543791e-03 +6.8440752636e-03 7.3590625523e-03 5.1099893000e-04 0.0000e+00 1.0000e+00
<vert_displacement>
36.106392251661653
</vert_displacement>
</event>
<event>
 4   1200 +8.5212000e+10 2.23656300e-02 7.81665300e-03            nan
       50 -1    0    0    0    0 +8.1367399560e-03 -6.6261294131e-03 +2.7030203480e+00 2.7030453288e+00 4.9935713700e-03 0.0000e+00 0.0000e+00
       11 -1    0    0    0    0 +8.5639072045e-19 -6.9739917616e-19 +2.8449250630e-16 5.1100000000e-04 5.1099893000e-04 0.0000e+00 1.0000e+00
       50  1    1    2    0    0 -7.2515261637e-03 +1.1893430806e-02 +2.1039836965e+00 2.1040357338e+00 4.9935713700e-03 0.0000e+00 0.0000e+00
       11  1    1    2    0    0 +1.5388266120e-02 -1.8519560219e-02 +5.9903665145e-01 5.9952059493e-01 5.1099893000e-04 0.0000e+00 1.0000e+00
<vert_displacement>
470.71418216659242
</vert_displacement>
</event>
<event>
 4   1200 +8.5212000e+10 1.24365800e-02 7.81665300e-03            nan
       50 -1    0    0    0    0 -2.0951445029e-02 +2.0507837075e-02 +1.2435759051e+01 1.2435794613e+01 4.9935713700e-03 0.0000e+00 0.0000e+00
       11 -1    0    0    0    0 +4.6761745570e-20 -4.5771652418e-20 -2.7755498483e-17 5.1100000000e-04 5.1099893000e-04 0.0000e+00 1.0000e+00
       50  1    1    2    0    0 -1.1348960441e-02 +2.6748334560e-02 +1.2307493612e+01 1.2307528924e+01 4.9935713700e-03 0.0000e+00 0.0000e+00
       11  1    1    2    0    0 -9.6024845882e-03 -6.2404974850e-03 +1.2826543936e-01 1.2877668878e-01 5.1099893000e-04 0.0000e+00 1.0000e+00
<vert_displacement>
15.813843521473103
</vert_displacement>
</event>
<event>
 4   1200 +8.5212000e+10 1.67193800e-02 7.81665300e-03            nan
       50 -1    0    0    0    0 -2.2873654120e-02 +4.0924451108e-02 +1.6450958687e+01 1.6451026250e+01 4.9935713700e-03 0.0000e+00 0.0000e+00
       11 -1    0    0    0    0 -2.5663415664e-18 +4.5915759418e-18 +1.8457382832e-15 5.1100000000e-04 5.1099893000e-04 0.0000e+00 1.0000e+00
       50  1    1    2    0    0 -2.8357089447e-02 +2.5444045361e-02 +1.6197962019e+01 1.6198007595e+01 4.9935713700e-03 0.0000e+00 0.0000e+00
       11  1    1    2    0    0 +5.4834353268e-03 +1.5480405746e-02 +2.5299666757e-01 2.5352965496e-01 5.1099893000e-04 0.0000e+00 1.0000e+00
<vert_displacement>
237.90789893596624
</vert_displacement>
</event>
<event>
 4   1200 +8.5212000e+10 6.31607200e-02 7.81665300e-03            nan
       50 -1    0    0    0    0 -1.4244833144e-02 +3.3622186964e-02 +1.9033135578e+01 1.9033171261e+01 4.9935713700e-03 0.0000e+00 0.0000e+00
       11 -1    0    0    0    0 -6.5434534671e-19 +1.5444562505e-18 +8.7429902288e-16 5.1100000000e-04 5.1099893000e-04 0.0000e+00 1.0000e+00
       50  1    1    2    0    0 +4.9119315129e-03 +8.5156539421e-02 +1.3602571350e+01 1.3602839704e+01 4.9935713700e-03 0.0000e+00 0.0000e+00
       11  1    1    2    0    0 -1.9156764657e-02 -5.1534352457e-02 +5.4305642285e+00 5.4308425563e+00 5.1099893000e-04 0.0000e+00 1.0000e+00
<vert_displacement>
453.43297720474084
</vert_displacement>
</event>
<event>
 4   1200 +8.5212000e+10 2.36263800e-02 7.81665300e-03            nan
       50 -1    0    0    0    0 +3.3993385520e-02 +8.7612764994e-04 +1.0047242833e+01 1.0047301617e+01 4.9935713700e-03 0.0000e+00 0.0000e+00
       11 -1    0    0    0    0 +1.9016049510e-18 +4.9010966439e-20 +5.6204718719e-16 5.1100000000e-04 5.1099893000e-04 0.0000e+00 1.0000e+00
       50  1    1    2    0    0 +5.4140019987e-02 -6.1435168165e-03 +9.4949282028e+00 9.4950858551e+00 4.9935713700e-03 0.0000e+00 0.0000e+00
       11  1    1    2    0    0 -2.0146634468e-02 +7.0196444665e-03 +5.5231462978e-01 5.5272676223e-01 5.1099893000e-04 0.0000e+00 1.0000e+00
<vert_displacement>
227.16442214236534
</vert_displacement>
</event>
<event>
 4   1200 +8.5212000e+10 6.12902000e-03 7.81665300e-03            nan
       50 -1    0    0    0    0 +1.2075563365e-02 -2.1244055794e-02 +1.8048587021e+01 1.8048604254e+01 4.9935713700e-03 0.0000e+00 0.0000e+00
       11 -1    0    0    0    0 -1.7641586529e-19 +3.1036137791e-19 -2.6367772668e-16 5.1100000000e-04 5.1099893000e-04 0.0000e+00 1.0000e+00
       50  1    1    2    0    0 +1.0975758321e-02 -1.7847537708e-02 +1.8036225636e+01 1.8036238497e+01 4.9935713700e-03 0.0000e+00 0.0000e+00
       11  1    1    2    0    0 +1.0998050439e-03 -3.3965180862e-03 +1.2361384913e-02 1.2876756701e-02 5.1099893000e-04 0.0000e+00 1.0000e+00
<vert_displacement>
128.81190960041408
</vert_displacement>
</event>
<event>
 4   1200 +8.5212000e+10 1.76012800e-02 7.81665300e-03            nan
       50 -1    0    0    0    0 -9.1848596459e-04 +4.1839719669e-03 +1.7319093377e+00 1.7319218340e+00 4.9935713700e-03 0.0000e+00 0.0000e+00
       11 -1    0    0    0    0 -2.9439218453e-20 +1.3410424272e-19 +5.5510981440e-17 5.1100000000e-04 5.1099893000e-04 0.0000e+00 1.0000e+00
       50  1    1    2    0    0 -1.7517183290e-02 +5.1081287086e-03 +1.3809865170e+00 1.3811160852e+00 4.9935713700e-03 0.0000e+00 0.0000e+00
       11  1    1    2    0    0 +1.6598697325e-02 -9.2415674171e-04 +3.5092282069e-01 3.5131674884e-01 5.1099893000e-04 0.0000e+00 1.0000e+00
<vert_displacement>
126.52325586734882
</vert_displacement>
</event>
<event>
 4   1200 +8.5212000e+10 1.29081600e-02 7.81665300e-03            nan
       50 -1    0    0    0    0 +5.1533948002e-02 +2.5674403853e-02 +1.4826619468e+01 1.4826732098e+01 4.9935713700e-03 0.0000e+00 0.0000e+00
       11 -1    0    0    0    0 +1.9294264740e-19 +9.6124741883e-20 +5.5510732694e-17 5.1100000000e-04 5.1099893000e-04 0.0000e+00 1.0000e+00
       50  1    1    2    0    0 +3.9231820028e-02 +2.6872073786e-02 +1.4686696070e+01 1.4686773902e+01 4.9935713700e-03 0.0000e+00 0.0000e+00
       11  1    1    2    0    0 +1.2302127975e-02 -1.1976699332e-03 +1.3992339786e-01 1.4046919646e-01 5.1099893000e-04 0.0000e+00 1.0000e+00
<vert_displacement>
25.107129188525661
</vert_displacement>
</event>
<event>
 4   1200 +8.5212000e+10 9.58199500e-03 7.81665300e-03            nan
       50 -1    0    0    0    0 -5.1659302492e-03 -1.4091914112e-02 +1.4365185891e+01 1.4365194600e+01 4.9935713700e-03 0.0000e+00 0.0000e+00
       11 -1    0    0    0    0 +2.7448586383e-20 +7.4875792578e-20 -7.6327791282e-17 5.1100000000e-04 5.1099893000e-04 0.0000e+00 1.0000e+00
       50  1    1    2    0    0 +2.4980718900e-03 -1.1111304052e-02 +1.4299448610e+01 1.4299454017e+01 4.9935713700e-03 0.0000e+00 0.0000e+00
       11  1    1    2    0    0 -7.6640021392e-03 -2.9806100603e-03 +6.5737280919e-02 6.6251582529e-02 5.1099893000e-04 0.0000e+00 1.0000e+00
<vert_displacement>
64.269138189128753
</vert_displacement>
</event>
<event>
 4   1200 +8.5212000e+10 2.02225100e-02 7.81665300e-03            nan
       50 -1    0    0    0    0 +2.1996784016e-02 +2.0254727101e-02 +1.4630283073e+01 1.4630314482e+01 4.9935713700e-03 0.0000e+00 0.0000e+00
       11 -1    0    0    0    0 -1.5649016936e-19 -1.4409677670e-19 -1.0408319117e-16 5.1100000000e-04 5.1099893000e-04 0.0000e+00 1.0000e+00
       50  1    1    2    0    0 +2.1210636251e-02 +3.9315574150e-02 +1.4244297320e+01 1.4244368244e+01 4.9935713700e-03 0.0000e+00 0.0000e+00
       11  1    1    2    0    0 +7.8614776467e-04 -1.9060847049e-02 +3.8598575287e-01 3.8645723755e-01 5.1099893000e-04 0.0000e+00 1.0000e+00
<vert_displacement>
60.985111413783713
</vert_displacement>
</event>
<event>
 4   1200 +8.5212000e+10 1.03861700e-02 7.81665300e-03            nan
       50 -1    0    0    0    0 +1.2499610947e-02 -3.6793893950e-03 +6.4042014901e+00 6.4042166921e+00 4.9935713700e-03 0.0000e+00 0.0000e+00
       11 -1    0    0    0    0 -7.3133206698e-19 +2.1527513639e-19 -3.7469949527e-16 5.1100000000e-04 5.1099893000e-04 0.0000e+00 1.0000e+00
       50  1    1    2    0    0 +9.5878196032e-03 -1.2313574845e-02 +6.3219845398e+00 6.3220057741e+00 4.9935713700e-03 0.0000e+00 0.0000e+00
       11  1    1    2    0    0 +2.9117913443e-03 +8.6341854496e-03 +8.2216950227e-02 8.2721917965e-02 5.1099893000e-04 0.0000e+00 1.0000e+00
<vert_displacement>
82.864247408452357
</vert_displacement>
</event>
<event>
 4   1200 +8.5212000e+10 2.68901700e-02 7.81665300e-03            nan
       50 -1    0    0    0    0 +6.3169586211e-03 +1.3088366887e-02 +5.1811140478e+00 5.1811368367e+00 4.9935713700e-03 0.0000e+00 0.0000e+00
       11 -1    0    0    0    0 -5.9220416647e-19 -1.2270122170e-18 -4.8572066244e-16 5.1100000000e-04 5.1099893000e-04 0.0000e+00 1.0000e+00
       50  1    1    2    0    0 +2.9273436102e-02 +2.2211620393e-02 +4.3704663620e+00 4.3706236908e+00 4.9935713700e-03 0.0000e+00 0.0000e+00
       11  1    1    2    0    0 -2.2956477481e-02 -9.1232535059e-03 +8.1064768580e-01 8.1102414590e-01 5.1099893000e-04 0.0000e+00 1.0000e+00
<vert_displacement>
367.35008631188265
</vert_displacement>
</event>
<event>
 4   1200 +8.5212000e+10 1.67528700e-02 7.81665300e-03            nan
       50 -1    0    0    0    0 +6.2194585544e-02 -6.4519703245e-02 +2.6841072758e+01 2.6841222824e+01 4.9935713700e-03 0.0000e+00 0.0000e+00
       11 -1    0    0    0    0 -1.9937110711e-18 +2.0682450978e-18 -8.6041804845e-16 5.1100000000e-04 5.1099893000e-04 0.0000e+00 1.0000e+00
       50  1    1    2    0    0 +5.8528245008e-02 -4.8220852597e-02 +2.6588516832e+01 2.6588625446e+01 4.9935713700e-03 0.0000e+00 0.0000e+00
       11  1    1    2    0    0 +3.6663405353e-03 -1.6298850648e-02 +2.5255592602e-01 2.5310837891e-01 5.1099893000e-04 0.0000e+00 1.0000e+00
<vert_displacement>
106.29438993296888
</vert_displacement>
</event>
<event>
 4   1200 +8.5212000e+10 1.59020700e-02 7.81665300e-03            nan
       50 -1    0    0    0    0 +3.3795675417e-02 -1.1416997637e-02 +1.0756816239e+01 1.0756876546e+01 4.9935713700e-03 0.0000e+00 0.0000e+00
       11 -1    0    0    0    0 +5.0141009789e-19 -1.6938847447e-19 +1.5959368224e-16 5.1100000000e-04 5.1099893000e-04 0.0000e+00 1.0000e+00
       50  1    1    2    0    0 +4.5229050690e-02 -2.0137916891e-02 +1.0528887403e+01 1.0529004990e+01 4.9935713700e-03 0.0000e+00 0.0000e+00
       11  1    1    2    0    0 -1.1433375273e-02 +8.7209192545e-03 +2.2792883649e-01 2.2838255653e-01 5.1099893000e-04 0.0000e+00 1.0000e+00
<vert_displacement>
418.07291316981082
</vert_displacement>
</event>
<event>
 4   1200 +8.5212000e+10 8.90443600e-03 7.81665300e-03            nan
       50 -1    0    0    0    0 -3.2244536218e-02 -1.7420881115e-02 +1.1547517382e+01 1.1547576621e+01 4.9935713700e-03 0.0000e+00 0.0000e+00
       11 -1    0    0    0    0 -1.0075321508e-18 -5.4434331759e-19 +3.6082066572e-16 5.1100000000e-04 5.1099893000e-04 0.0000e+00 1.0000e+00
       50  1    1    2    0    0 -3.3922224532e-02 -1.0197745932e-02 +1.1494090009e+01 1.1494145674e+01 4.9935713700e-03 0.0000e+00 0.0000e+00
       11  1    1    2    0    0 +1.6776883140e-03 -7.2231351829e-03 +5.3427372447e-02 5.3941946261e-02 5.1099893000e-04 0.0000e+00 1.0000e+00
<vert_displacement>
415.40131573679747
</vert_displacement>
</event>
<event>
 4   1200 +8.5212000e+10 1.69854000e-02 7.81665300e-03            nan
       50 -1    0    0    0    0 +5.9484417850e-02 -3.3172769656e-02 +2.0787717733e+01 2.0787829909e+01 4.9935713700e-03 0.0000e+00 0.0000e+00
       11 -1    0    0    0    0 +7.3465940843e-18 -4.0969867761e-18 +2.5673769643e-15 5.1100000000e-04 5.1099893000e-04 0.0000e+00 1.0000e+00
       50  1    1    2    0    0 +4.4875382151e-02 -4.1207127624e-02 +2.0526559148e+01 2.0526650171e+01 4.9935713700e-03 0.0000e+00 0.0000e+00
       11  1    1    2    0    0 +1.4609035699e-02 +8.0343579678e-03 +2.6115858460e-01 2.6169073782e-01 5.1099893000e-04 0.0000e+00 1.0000e+00
<vert_displacement>
250.71678023996756
</vert_displacement>
</event>
<event>
 4   1200 +8.5212000e+10 1.52183500e-02 7.81665300e-03            nan
       50 -1    0    0    0    0 +1.1176907019e-02 +6.5022707565e-03 +9.5166782447e+00 9.5166883395e+00 4.9935713700e-03 0.0000e+00 0.0000e+00
       11 -1    0    0    0    0 -5.7045860830e-19 -3.3186965950e-19 -4.8572212491e-16 5.1100000000e-04 5.1099893000e-04 0.0000e+00 -1.0000e+00
       50  1    1    2    0    0 +2.4954548771e-02 +3.1845898341e-03 +9.3099374606e+00 9.3099727887e+00 4.9935713700e-03 0.0000e+00 0.0000e+00
       11  1    1    2    0    0 -1.3777641752e-02 +3.3176809224e-03 +2.0674078412e-01 2.0722655080e-01 5.1099893000e-04 0.0000e+00 -1.0000e+00
<vert_displacement>
24.879564214057805
</vert_displacement>
</event>
<event>
 4   1200 +8.5212000e+10 1.24005900e-02 7.81665300e-03            nan
       50 -1    0    0    0    0 +3.1394350765e-02 -1.5099946927e-02 +1.0671869178e+01 1.0671927207e+01 4.9935713700e-03 0.0000e+00 0.0000e+00
       11 -1    0    0    0    0 +1.4492966736e-18 -6.9707773277e-19 +4.9265884227e-16 5.1100000000e-04 5.1099893000e-04 0.0000e+00 1.0000e+00
       50  1    1    2    0    0 +3.9775091475e-02 -2.2142143950e-02 +1.0544233348e+01 1.0544332798e+01 4.9935713700e-03 0.0000e+00 0.0000e+00
       11  1    1    2    0    0 -8.3807407101e-03 +7.0421970227e-03 +1.2763583049e-01 1.2810540854e-01 5.1099893000e-04 0.0000e+00 1.0000e+00
<vert_displacement>
278.64130780531434
</vert_displacement>
</event>
<event>
 4   1200 +8.5212000e+10 9.71685000e-03 7.81665300e-03            nan
       50 -1    0    0    0    0 +9.6480586926e-05 -1.2456077860e-03 +3.4713777491e+00 3.4713815655e+00 4.9935713700e-03 0.0000e+00 0.0000e+00
       11 -1    0    0    0    0 +1.5428306834e-21 -1.9918638277e-20 +5.5511147636e-17 5.1100000000e-04 5.1099893000e-04 0.0000e+00 1.0000e+00
       50  1    1    2    0    0 -4.5687901481e-03 -8.1297351145e-03 +3.4019827951e+00 3.4019992416e+00 4.9935713700e-03 0.0000e+00 0.0000e+00
       11  1    1    2    0    0 +4.6652707351e-03 +6.8841273285e-03 +6.9394954029e-02 6.9893323892e-02 5.1099893000e-04 0.0000e+00 1.0000e+00
<vert_displacement>
366.14584313826754
</vert_displacement>
</event>
<event>
 4   1200 +8.5212000e+10 1.15819700e-02 7.81665300e-03            nan
       50 -1    0    0    0    0 -3.1900219290e-02 -4.8687591605e-03 +2.0629229954e+01 2.0629255798e+01 4.9935713700e-03 0.0000e+00 0.0000e+00
       11 -1    0    0    0    0 +2.0387030296e-18 +3.1115629522e-19 -1.3183882287e-15 5.1100000000e-04 5.1099893000e-04 0.0000e+00 1.0000e+00
       50  1    1    2    0    0 -3.6202144087e-02 -1.4290246475e-02 +2.0521802967e+01 2.0521840482e+01 4.9935713700e-03 0.0000e+00 0.0000e+00
       11  1    1    2    0    0 +4.3019247963e-03 +9.4214873148e-03 +1.0742698757e-01 1.0792631634e-01 5.1099893000e-04 0.0000e+00 1.0000e+00
<vert_displacement>
291.31692526712749
</vert_displacement>
</event>
<event>
 4   1200 +8.5212000e+10 8.62059700e-02 7.81665300e-03            nan
       50 -1    0    0    0    0 -1.0195299429e-01 +2.9313058630e-02 +3.0381046762e+01 3.0381232380e+01 4.9935713700e-03 0.0000e+00 0.0000e+00
       11 -1    0    0    0    0 +2.4682589301e-18 -7.0966251887e-19 -7.3551826997e-16 5.1100000000e-04 5.1099893000e-04 0.0000e+00 1.0000e+00
       50  1    1    2    0    0 -1.2618851067e-01 +7.9548756240e-03 +1.1979915991e+01 1.1980584248e+01 4.9935713700e-03 0.0000e+00 0.0000e+00
       11  1    1    2    0    0 +2.4235516382e-02 +2.1358183006e-02 +1.8401130770e+01 1.8401159133e+01 5.1099893000e-04 0.0000e+00 1.0000e+00
<vert_displacement>
156.73345506799294
</vert_displacement>
</event>
<event>
 4   1200 +8.5212000e+10 7.82076000e-03 7.81665300e-03            nan
       50 -1    0    0    0    0 +3.6538964555e-02 +3.0242028490e-02 +1.7970984622e+01 1.7971047907e+01 4.9935713700e-03 0.0000e+00 0.0000e+00
       11 -1    0    0    0    0 +5.3611343986e-19 +4.4372242398e-19 +2.6367704998e-16 5.1100000000e-04 5.1099893000e-04 0.0000e+00 1.0000e+00
       50  1    1    2    0    0 +3.6687816241e-02 +2.4167310147e-02 +1.7935474455e+01 1.7935528955e+01 4.9935713700e-03 0.0000e+00 0.0000e+00
       11  1    1    2    0    0 -1.4885168615e-04 +6.0747183429e-03 +3.5510166747e-02 3.6029951736e-02 5.1099893000e-04 0.0000e+00 1.0000e+00
<vert_displacement>
476.79176096557904
</vert_displacement>
</event>
<event>
 4   1200 +8.5212000e+10 1.92354400e-02 7.81665300e-03            nan
       50 -1    0    0    0    0 -1.5678061951e-02 +2.6617705808e-03 +7.4481753008e+00 7.4481939511e+00 4.9935713700e-03 0.0000e+00 0.0000e+00
       11 -1    0    0    0    0 -1.8987819565e-19 +3.2236905091e-20 +9.0205415148e-17 5.1100000000e-04 5.1099893000e-04 0.0000e+00 1.0000e+00
       50  1    1    2    0    0 +5.9161507281e-04 -7.6675745033e-03 +7.0936139809e+00 7.0936199072e+00 4.9935713700e-03 0.0000e+00 0.0000e+00
       11  1    1    2    0    0 -1.6269677024e-02 +1.0329345084e-02 +3.5456131985e-01 3.5508504392e-01 5.1099893000e-04 0.0000e+00 1.0000e+00
<vert_displacement>
336.34783994211659
</vert_displacement>
</event>
<event>
 4   1200 +8.5212000e+10 6.18150000e-03 7.81665300e-03            nan
       50 -1    0    0    0    0 -8.2210439977e-03 -5.7523937606e-03 +4.5381320530e+00 4.5381458925e+00 4.9935713700e-03 0.0000e+00 0.0000e+00
       11 -1    0    0    0    0 +8.9247770908e-19 +6.2448068720e-19 -4.9266026301e-16 5.1100000000e-04 5.1099893000e-04 0.0000e+00 1.0000e+00
       50  1    1    2    0    0 -5.4690477772e-03 -8.1506360247e-03 +4.5251054718e+00 4.5251188725e+00 4.9935713700e-03 0.0000e+00 0.0000e+00
       11  1    1    2    0    0 -2.7519962205e-03 +2.3982422641e-03 +1.3026581187e-02 1.3538020036e-02 5.1099893000e-04 0.0000e+00 1.0000e+00
<vert_displacement>
408.52658465266944
</vert_displacement>
</event>
<event>
 4   1200 +8.5212000e+10 1.30397000e-02 7.81665300e-03            nan
       50 -1    0    0    0    0 +1.3365000928e-02 +9.3792575623e-02 +5.8462845613e+01 5.8462922590e+01 4.9935713700e-03 0.0000e+00 0.0000e+00
       11 -1    0    0    0    0 +3.5532579645e-19 +2.4935966569e-18 +1.5543101936e-15 5.1100000000e-04 5.1099893000e-04 0.0000e+00 1.0000e+00
       50  1    1    2    0    0 +2.3017229961e-02 +8.6401616956e-02 +5.8320532645e+01 5.8320601403e+01 4.9935713700e-03 0.0000e+00 0.0000e+00
       11  1    1    2    0    0 -9.6522290330e-03 +7.3909586664e-03 +1.4231296774e-01 1.4283218720e-01 5.1099893000e-04 0.0000e+00 1.0000e+00
<vert_displacement>
57.665423769671420
</vert_displacement>
</event>
<event>
 4   1200 +8.5212000e+10 1.22564900e-02 7.81665300e-03            nan
       50 -1    0    0    0    0 +6.6816005911e-02 +4.4092338507e-02 +2.4365739183e+01 2.4365871201e+01 4.9935713700e-03 0.0000e+00 0.0000e+00
       11 -1    0    0    0    0 +7.0402899754e-18 +4.6459354245e-18 +2.5673768879e-15 5.1100000000e-04 5.1099893000e-04 0.0000e+00 1.0000e+00
       50  1    1    2    0    0 +5.5288710331e-02 +4.4155532890e-02 +2.4242554878e+01 2.4242658651e+01 4.9935713700e-03 0.0000e+00 0.0000e+00
       11  1    1    2    0    0 +1.1527295580e-02 -6.3194382456e-05 +1.2318430541e-01 1.2372354972e-01 5.1099893000e-04 0.0000e+00 1.0000e+00
<vert_displacement>
125.87922205084288
</vert_displacement>
</event>
<event>
 4   1200 +8.5212000e+10 9.05297900e-03 7.81665300e-03            nan
       50 -1    0    0    0    0 +9.0294023274e-03 +5.1201197238e-04 +2.8900510049e+00 2.8900694696e+00 4.9935713700e-03 0.0000e+00 0.0000e+00
       11 -1    0    0    0    0 -1.0514372437e-18 -5.9621715528e-20 -3.3653470656e-16 5.1100000000e-04 5.1099893000e-04 0.0000e+00 1.0000e+00
       50  1    1    2    0    0 +1.6401114328e-02 +6.5618499073e-04 +2.8330935305e+00 2.8331454808e+00 4.9935713700e-03 0.0000e+00 0.0000e+00
       11  1    1    2    0    0 -7.3717120009e-03 -1.4417301835e-04 +5.6957474382e-02 5.7434988740e-02 5.1099893000e-04 0.0000e+00 1.0000e+00
<vert_displacement>
176.78068708636684
</vert_displacement>
</event>
<event>
 4   1200 +8.5212000e+10 1.49215700e-02 7.81665300e-03            nan
       50 -1    0    0    0    0 -6.4663278096e-03 -1.4508701627e-04 +2.2358003357e+00 2.2358152677e+00 4.9935713700e-03 0.0000e+00 0.0000e+00
       11 -1    0    0    0    0 -1.3044471458e-19 -2.9268287942e-21 +4.5102621646e-17 5.1100000000e-04 5.1099893000e-04 0.0000e+00 1.0000e+00
       50  1    1    2    0    0 -3.6239753619e-03 -1.4015609829e-02 +2.0215460148e+00 2.0216040157e+00 4.9935713700e-03 0.0000e+00 0.0000e+00
       11  1    1    2    0    0 -2.8423524477e-03 +1.3870522813e-02 +2.1425432085e-01 2.1472225197e-01 5.1099893000e-04 0.0000e+00 1.0000e+00
<vert_displacement>
77.153461658839490
</vert_displacement>
</event>
<event>
 4   1200 +8.5212000e+10 1.81484200e-02 7.81665300e-03            nan
       50 -1    0    0    0    0 -7.9067260524e-03 -3.4708375719e-03 +7.4986790650e+00 7.4986856994e+00 4.9935713700e-03 0.0000e+00 0.0000e+00
       11 -1    0    0    0    0 +3.7314021764e-19 +1.6379840131e-19 -3.5388335447e-16 5.1100000000e-04 5.1099893000e-04 0.0000e+00 1.0000e+00
       50  1    1    2    0    0 -2.1112025948e-02 +7.6860269703e-03 +7.1878487082e+00 7.1878855570e+00 4.9935713700e-03 0.0000e+00 0.0000e+00
       11  1    1    2    0    0 +1.3205299896e-02 -1.1156864542e-02 +3.1083035677e-01 3.1131114240e-01 5.1099893000e-04 0.0000e+00 1.0000e+00
<vert_displacement>
152.55137961585442
</vert_displacement>
</event>
<event>
 4   1200 +8.5212000e+10 5.17239800e-03 7.81665300e-03            nan
       50 -1    0    0    0    0 +2.7610445642e-02 -1.8850293164e-02 +8.5684270448e+00 8.5684937199e+00 4.9935713700e-03 0.0000e+00 0.0000e+00
       11 -1    0    0    0    0 +3.1303095789e-18 -2.1371351271e-18 +9.7143775229e-16 5.1100000000e-04 5.1099893000e-04 0.0000e+00 1.0000e+00
       50  1    1    2    0    0 +2.7038070156e-02 -1.7622925682e-02 +8.5666522925e+00 8.5667145430e+00 4.9935713700e-03 0.0000e+00 0.0000e+00
       11  1    1    2    0    0 +5.7237548662e-04 -1.2273674819e-03 +1.7747522645e-03 2.2901768797e-03 5.1099893000e-04 0.0000e+00 1.0000e+00
<vert_displacement>
259.86410290412522
</vert_displacement>
</event>
<event>
 4   1200 +8.5212000e+10 1.08726800e-02 7.81665300e-03            nan
       50 -1    0    0    0    0 -1.9968971934e-02 -2.1366479980e-02 +9.1252542410e+00 9.1253024708e+00 4.9935713700e-03 0.0000e+00 0.0000e+00
       11 -1    0    0    0    0 -1.1388329221e-18 -1.2185329775e-18 +5.2041437016e-16 5.1100000000e-04 5.1099893000e-04 0.0000e+00 1.0000e+00
       50  1    1    2    0    0 -1.5085033197e-02 -2.9597868854e-02 +9.0330343134e+00 9.0330967799e+00 4.9935713700e-03 0.0000e+00 0.0000e+00
       11  1    1    2    0    0 -4.8839387368e-03 +8.2313888740e-03 +9.2219927556e-02 9.2716690939e-02 5.1099893000e-04 0.0000e+00 1.0000e+00
<vert_displacement>
173.58469701656199
</vert_displacement>
</event>
<event>
 4   1200 +8.5212000e+10 2.36719200e-02 7.81665300e-03            nan
       50 -1    0    0    0    0 -9.4570781446e-02 -7.6578344458e-02 +3.1727597369e+01 3.1727831120e+01 4.9935713700e-03 0.0000e+00 0.0000e+00
       11 -1    0    0    0    0 -2.7714793263e-18 -2.2441952499e-18 +9.2980494434e-16 5.1100000000e-04 5.1099893000e-04 0.0000e+00 1.0000e+00
       50  1    1    2    0    0 -1.1427322091e-01 -6.6229853876e-02 +3.1194697076e+01 3.1194977085e+01 4.9935713700e-03 0.0000e+00 0.0000e+00
       11  1    1    2    0    0 +1.9702439460e-02 -1.0348490582e-02 +5.3290029280e-01 5.3336503500e-01 5.1099893000e-04 0.0000e+00 1.0000e+00
<vert_displacement>
309.16337071270488
</vert_displacement>
</event>
<event>
 4   1200 +8.5212000e+10 5.85517900e-03 7.81665300e-03            nan
       50 -1    0    0    0    0 +7.1613758396e-03 +4.8759163815e-02 +2.1725529970e+01 2.1725586440e+01 4.9935713700e-03 0.0000e+00 0.0000e+00
       11 -1    0    0    0    0 +1.8755518273e-19 +1.2769939860e-18 +5.6898783622e-16 5.1100000000e-04 5.1099893000e-04 0.0000e+00 1.0000e+00
       50  1    1    2    0    0 +9.8675123313e-03 +5.0155610736e-02 +2.1716375698e+01 2.1716436432e+01 4.9935713700e-03 0.0000e+00 0.0000e+00
       11  1    1    2    0    0 -2.7061364918e-03 -1.3964469210e-03 +9.1542721835e-03 9.6610070816e-03 5.1099893000e-04 0.0000e+00 1.0000e+00
<vert_displacement>
438.96609233856213
</vert_displacement>
</event>
<event>
 4   1200 +8.5212000e+10 9.14352200e-03 7.81665300e-03            nan
       50 -1    0    0    0    0 +1.1297690666e-02 -9.2433092887e-03 +5.1869814329e+00 5.1870043761e+00 4.9935713700e-03 0.0000e+00 0.0000e+00
       11 -1    0    0    0    0 -6.6499164674e-19 +5.4406901788e-19 -3.0531012280e-16 5.1100000000e-04 5.1099893000e-04 0.0000e+00 1.0000e+00
       50  1    1    2    0    0 +1.8400050946e-02 -1.1672006363e-02 +5.1288973988e+00 5.1289461160e+00 4.9935713700e-03 0.0000e+00 0.0000e+00
       11  1    1    2    0    0 -7.1023602799e-03 +2.4286970744e-03 +5.8084034186e-02 5.8569260182e-02 5.1099893000e-04 0.0000e+00 1.0000e+00
<vert_displacement>
428.91022529811994
</vert_displacement>
</event>
<event>
 4   1200 +8.5212000e+10 1.95671300e-02 7.81665300e-03            nan
       50 -1    0    0    0    0 +3.3934969975e-02 -3.6315333338e-02 +1.6600928335e+01 1.6601003491e+01 4.9935713700e-03 0.0000e+00 0.0000e+00
       11 -1    0    0    0    0 +1.4467835659e-18 -1.5482679814e-18 +7.0776400602e-16 5.1100000000e-04 5.1099893000e-04 0.0000e+00 1.0000e+00
       50  1    1    2    0    0 +5.2097463337e-02 -3.6503258456e-02 +1.6242916194e+01 1.6243041527e+01 4.9935713700e-03 0.0000e+00 0.0000e+00
       11  1    1    2    0    0 -1.8162493362e-02 +1.8792511798e-04 +3.5801214098e-01 3.5847296368e-01 5.1099893000e-04 0.0000e+00 1.0000e+00
<vert_displacement>
0.52804212661513961
</vert_displacement>
</event>
<event>
 4   1200 +8.5212000e+10 9.41956700e-03 7.81665300e-03            nan
       50 -1    0    0    0    0 -2.4821437793e-02 -8.8658902620e-02 +4.5311442568e+01 4.5311536379e+01 4.9935713700e-03 0.0000e+00 0.0000e+00
       11 -1    0    0    0    0 -1.1403276397e-19 -4.0730999552e-19 +2.0816638740e-16 5.1100000000e-04 5.1099893000e-04 0.0000e+00 1.0000e+00
       50  1    1    2    0    0 -2.0984404620e-02 -9.5560211663e-02 +4.5248924793e+01 4.5249030840e+01 4.9935713700e-03 0.0000e+00 0.0000e+00
       11  1    1    2    0    0 -3.8370331730e-03 +6.9013090430e-03 +6.2517774596e-02 6.3016538705e-02 5.1099893000e-04 0.0000e+00 1.0000e+00
<vert_displacement>
413.57629438463067
</vert_displacement>
</event>
<event>
 4   1200 +8.5212000e+10 9.01530700e-03 7.81665300e-03            nan
       50 -1    0    0    0    0 -5.9334155209e-04 -1.8793867561e-02 +1.3128993746e+01 1.3129008161e+01 4.9935713700e-03 0.0000e+00 0.0000e+00
       11 -1    0    0    0    0 +1.6620305151e-20 +5.2644183225e-19 -3.6776099974e-16 5.1100000000e-04 5.1099893000e-04 0.0000e+00 1.0000e+00
       50  1    1    2    0    0 +5.2969298162e-03 -1.4059068685e-02 +1.3073637495e+01 1.3073647081e+01 4.9935713700e-03 0.0000e+00 0.0000e+00
       11  1    1    2    0    0 -5.8902713683e-03 -4.7347988763e-03 +5.5356251484e-02 5.5872079928e-02 5.1099893000e-04 0.0000e+00 1.0000e+00
<vert_displacement>
53.645710531017365
</vert_displacement>
</event>
<event>
 4   1200 +8.5212000e+10 2.94199900e-02 7.81665300e-03            nan
       50 -1    0    0    0    0 +1.3225887112e-02 +4.5770408630e-03 +9.5207776467e+00 9.5207892429e+00 4.9935713700e-03 0.0000e+00 0.0000e+00
       11 -1    0    0    0    0 +1.0699540961e-18 +3.7027562522e-19 +7.7021639116e-16 5.1100000000e-04 5.1099893000e-04 0.0000e+00 1.0000e+00
       50  1    1    2    0    0 +4.0245611824e-02 -2.2357447071e-03 +8.6110543989e+00 8.6111501847e+00 4.9935713700e-03 0.0000e+00 0.0000e+00
       11  1    1    2    0    0 -2.7019724712e-02 +6.8127855701e-03 +9.0972324783e-01 9.1015005814e-01 5.1099893000e-04 0.0000e+00 1.0000e+00
<vert_displacement>
131.62211393596792
</vert_displacement>
</event>
<event>
 4   1200 +8.5212000e+10 5.95865400e-03 7.81665300e-03            nan
       50 -1    0    0    0    0 +3.0579000263e-03 +7.0444764223e-03 +9.0184862335e+00 9.0184908856e+00 4.9935713700e-03 0.0000e+00 0.0000e+00
       11 -1    0    0    0    0 -5.1760970012e-20 -1.1924161343e-19 -1.5265561054e-16 5.1100000000e-04 5.1099893000e-04 0.0000e+00 1.0000e+00
       50  1    1    2    0    0 +6.2420708229e-03 +7.6755157909e-03 +9.0081298779e+00 9.0081366946e+00 4.9935713700e-03 0.0000e+00 0.0000e+00
       11  1    1    2    0    0 -3.1841707966e-03 -6.3103936862e-04 +1.0356355614e-02 1.0865191018e-02 5.1099893000e-04 0.0000e+00 1.0000e+00
<vert_displacement>
200.20958589351653
</vert_displacement>
</event>
<event>
 4   1200 +8.5212000e+10 2.77342700e-02 7.81665300e-03            nan
       50 -1    0    0    0    0 +8.8716035277e-03 +2.8315758204e-02 +1.6214454252e+01 1.6214482172e+01 4.9935713700e-03 0.0000e+00 0.0000e+00
       11 -1    0    0    0    0 +4.5558619437e-19 +1.4541078713e-18 +8.3266587416e-16 5.1100000000e-04 5.1099893000e-04 0.0000e+00 1.0000e+00
       50  1    1    2    0    0 +3.2372325436e-02 +4.0101103215e-02 +1.5450079494e+01 1.5450166257e+01 4.9935713700e-03 0.0000e+00 0.0000e+00
       11  1    1    2    0    0 -2.3500721909e-02 -1.1785345011e-02 +7.6437475858e-01 7.6482691569e-01 5.1099893000e-04 0.0000e+00 1.0000e+00
<vert_displacement>
302.57931354886932
</vert_displacement>
</event>
<event>
 4   1200 +8.5212000e+10 7.76231400e-03 7.81665300e-03            nan
       50 -1    0    0    0    0 +1.1822616700e-02 -4.0863134533e-02 +2.6595433497e+01 2.6595467986e+01 4.9935713700e-03 0.0000e+00 0.0000e+00
       11 -1    0    0    0    0 -4.8119468972e-19 +1.6631786213e-18 -1.0824660643e-15 5.1100000000e-04 5.1099893000e-04 0.0000e+00 1.0000e+00
       50  1    1    2    0    0 +7.5209198571e-03 -3.6693513247e-02 +2.6560838553e+01 2.6560865433e+01 4.9935713700e-03 0.0000e+00 0.0000e+00
       11  1    1    2    0    0 +4.3016968429e-03 -4.1696212861e-03 +3.4594944362e-02 3.5113553405e-02 5.1099893000e-04 0.0000e+00 1.0000e+00
<vert_displacement>
172.22068882174889
</vert_displacement>
</event>
<event>
 4   1200 +8.5212000e+10 7.18424400e-03 7.81665300e-03            nan
       50 -1    0    0    0    0 -4.2831067417e-02 -2.6085155209e-02 +1.3380267089e+01 1.3380362000e+01 4.9935713700e-03 0.0000e+00 0.0000e+00
       11 -1    0    0    0    0 +2.4432842596e-19 +1.4880191640e-19 -7.6327296843e-17 5.1100000000e-04 5.1099893000e-04 0.0000e+00 1.0000e+00
       50  1    1    2    0    0 -4.1158629943e-02 -3.0948793845e-02 +1.3354107225e+01 1.3354207449e+01 4.9935713700e-03 0.0000e+00 0.0000e+00
       11  1    1    2    0    0 -1.6724374742e-03 +4.8636386364e-03 +2.6159864048e-02 2.6665551462e-02 5.1099893000e-04 0.0000e+00 1.0000e+00
<vert_displacement>
125.49427377590254
</vert_displacement>
</event>
<event>
 4   1200 +8.5212000e+10 5.21409300e-02 7.81665300e-03            nan
       50 -1    0    0    0    0 +1.6917630545e-03 +5.8144328636e-03 +1.4005938181e+01 1.4005940380e+01 4.9935713700e-03 0.0000e+00 0.0000e+00
       11 -1    0    0    0    0 -4.4421519226e-20 -1.5267264559e-19 -3.6776134253e-16 5.1100000000e-04 5.1099893000e-04 0.0000e+00 1.0000e+00
       50  1    1    2    0    0 -4.7514354881e-02 -1.3374504798e-02 +1.0481862258e+01 1.0481979671e+01 4.9935713700e-03 0.0000e+00 0.0000e+00
       11  1    1    2    0    0 +4.9206117936e-02 +1.9188937662e-02 +3.5240759227e+00 3.5244717090e+00 5.1099893000e-04 0.0000e+00 1.0000e+00
<vert_displacement>
258.96614230178659
</vert_displacement>
</event>
<event>
 4   1200 +8.5212000e+10 2.84009900e-02 7.81665300e-03            nan
       50 -1    0    0    0    0 +8.5992735217e-03 +8.9554360141e-04 +3.0251405588e+01 3.0251407235e+01 4.9935713700e-03 0.0000e+00 0.0000e+00
       11 -1    0    0    0    0 +5.6412125996e-19 +5.8748588878e-20 +1.9845235755e-15 5.1100000000e-04 5.1099893000e-04 0.0000e+00 1.0000e+00
       50  1    1    2    0    0 +2.2482407150e-02 -2.3266701349e-02 +2.9466135456e+01 2.9466153642e+01 4.9935713700e-03 0.0000e+00 0.0000e+00
       11  1    1    2    0    0 -1.3883133629e-02 +2.4162244950e-02 +7.8527013131e-01 7.8576459307e-01 5.1099893000e-04 0.0000e+00 1.0000e+00
<vert_displacement>
115.60973252140954
</vert_displacement>
</event>
<event>
 4   1200 +8.5212000e+10 5.94435900e-03 7.81665300e-03            nan
       50 -1    0    0    0    0 -9.8336880690e-03 -1.3011895080e-02 +1.1214682167e+01 1.1214695139e+01 4.9935713700e-03 0.0000e+00 0.0000e+00
       11 -1    0    0    0    0 -1.8861704644e-19 -2.4957728996e-19 +2.1510548354e-16 5.1100000000e-04 5.1099893000e-04 0.0000e+00 1.0000e+00
       50  1    1    2    0    0 -6.6072463331e-03 -1.3217485943e-02 +1.1204499233e+01 1.1204510090e+01 4.9935713700e-03 0.0000e+00 0.0000e+00
       11  1    1    2    0    0 -3.2264417359e-03 +2.0559086309e-04 +1.0182934207e-02 1.0696048937e-02 5.1099893000e-04 0.0000e+00 1.0000e+00
<vert_displacement>
5.1881371915625474
</vert_displacement>
</event>
<event>
 4   1200 +8.5212000e+10 3.63325400e-02 7.81665300e-03            nan
       50 -1    0    0    0    0 +1.2187778314e-02 +5.0921154102e-03 +1.5021695403e+01 1.5021702040e+01 4.9935713700e-03 0.0000e+00 0.0000e+00
       11 -1    0    0    0    0 +4.3349730224e-19 +1.8111736497e-19 +5.3429462404e-16 5.1100000000e-04 5.1099893000e-04 0.0000e+00 1.0000e+00
       50  1    1    2    0    0 -6.9814162322e-03 +3.5760707653e-02 +1.3624196418e+01 1.3624246054e+01 4.9935713700e-03 0.0000e+00 0.0000e+00
       11  1    1    2    0    0 +1.9169194546e-02 -3.0668592242e-02 +1.3974989847e+00 1.3979669860e+00 5.1099893000e-04 0.0000e+00 1.0000e+00
<vert_displacement>
105.11965643199072
</vert_displacement>
</event>
<event>
 4   1200 +8.5212000e+10 1.16813700e-02 7.81665300e-03            nan
       50 -1    0    0    0    0 +5.1508982419e-02 -3.7254529698e-02 +2.0299610778e+01 2.0299710928e+01 4.9935713700e-03 0.0000e+00 0.0000e+00
       11 -1    0    0    0    0 +6.3384909975e-18 -4.5843946050e-18 +2.4979895570e-15 5.1100000000e-04 5.1099893000e-04 0.0000e+00 1.0000e+00
       50  1    1    2    0    0 +5.9629484673e-02 -3.0651847473e-02 +2.0189887354e+01 2.0189999295e+01 4.9935713700e-03 0.0000e+00 0.0000e+00
       11  1    1    2    0    0 -8.1205022535e-03 -6.6026822249e-03 +1.0972342427e-01 1.1022263344e-01 5.1099893000e-04 0.0000e+00 1.0000e+00
<vert_displacement>
372.51419689625220
</vert_displacement>
</event>
<event>
 4   1200 +8.5212000e+10 7.03870300e-03 7.81665300e-03            nan
       50 -1    0    0    0    0 +4.6359208291e-02 +3.2286039851e-02 +1.4171505099e+01 1.4171618583e+01 4.9935713700e-03 0.0000e+00 0.0000e+00
       11 -1    0    0    0    0 -1.1576492791e-18 -8.0622409517e-19 -3.5388077722e-16 5.1100000000e-04 5.1099893000e-04 0.0000e+00 1.0000e+00
       50  1    1    2    0    0 +5.1102663793e-02 +3.1068214746e-02 +1.4147372300e+01 1.4147499590e+01 4.9935713700e-03 0.0000e+00 0.0000e+00
       11  1    1    2    0    0 -4.7434555017e-03 +1.2178251046e-03 +2.4132799316e-02 2.4629993723e-02 5.1099893000e-04 0.0000e+00 1.0000e+00
<vert_displacement>
249.84705785669178
</vert_displacement>
</event>
<event>
 4   1200 +8.5212000e+10 1.03933000e-02 7.81665300e-03            nan
       50 -1    0    0    0    0 -4.4786368356e-02 +5.1650793313e-03 +2.2077040322e+01 2.2077086919e+01 4.9935713700e-03 0.0000e+00 0.0000e+00
       11 -1    0    0    0    0 -4.5607823648e-18 +5.2598153393e-19 +2.2481969372e-15 5.1100000000e-04 5.1099893000e-04 0.0000e+00 1.0000e+00
       50  1    1    2    0    0 -5.3314464986e-02 +2.4063840321e-03 +2.1995423208e+01 2.1995488521e+01 4.9935713700e-03 0.0000e+00 0.0000e+00
       11  1    1    2    0    0 +8.5280966298e-03 +2.7586952992e-03 +8.1617113888e-02 8.2109397947e-02 5.1099893000e-04 0.0000e+00 1.0000e+00
<vert_displacement>
230.43874270088330
</vert_displacement>
</event>
<event>
 4   1200 +8.5212000e+10 5.15659600e-03 7.81665300e-03            nan
       50 -1    0    0    0    0 -5.0042603892e-02 +2.2270875531e-02 +1.4424419392e+01 1.4424524255e+01 4.9935713700e-03 0.0000e+00 0.0000e+00
       11 -1    0    0    0    0 -1.8295415062e-18 +8.1421604779e-19 +5.2735213454e-16 5.1100000000e-04 5.1099893000e-04 0.0000e+00 1.0000e+00
       50  1    1    2    0    0 -4.8881302787e-02 +2.1703489889e-02 +1.4422804944e+01 1.4422904971e+01 4.9935713700e-03 0.0000e+00 0.0000e+00
       11  1    1    2    0    0 -1.1613011047e-03 +5.6738564163e-04 +1.6144479530e-03 2.1302837420e-03 5.1099893000e-04 0.0000e+00 1.0000e+00
<vert_displacement>
219.05541837880847
</vert_displacement>
</event>
<event>
 4   1200 +8.5212000e+10 1.39259500e-02 7.81665300e-03            nan
       50 -1    0    0    0    0 -7.7624462306e-02 +1.5190656667e-03 +3.2605373529e+01 3.2605466348e+01 4.9935713700e-03 0.0000e+00 0.0000e+00
       11 -1    0    0    0    0 +7.6320361098e-18 -1.4935451631e-19 -3.2057598952e-15 5.1100000000e-04 5.1099893000e-04 0.0000e+00 1.0000e+00
       50  1    1    2    0    0 -6.5209259659e-02 -3.4411457925e-03 +3.2439193956e+01 3.2439260064e+01 4.9935713700e-03 0.0000e+00 0.0000e+00
       11  1    1    2    0    0 -1.2415202647e-02 +4.9602114592e-03 +1.6617957368e-01 1.6671728399e-01 5.1099893000e-04 0.0000e+00 1.0000e+00
<vert_displacement>
12.019725133442087
</vert_displacement>
</event>
<event>
 4   1200 +8.5212000e+10 1.22907600e-02 7.81665300e-03            nan
       50 -1    0    0    0    0 +1.7075535005e-02 -5.9707451737e-03 +1.5397342851e+01 1.5397354287e+01 4.9935713700e-03 0.0000e+00 0.0000e+00
       11 -1    0    0    0    0 +2.3085524261e-19 -8.0722380016e-20 +2.0816667346e-16 5.1100000000e-04 5.1099893000e-04 0.0000e+00 1.0000e+00
       50  1    1    2    0    0 +2.2916987934e-02 -1.5428978379e-02 +1.5272909599e+01 1.5272935402e+01 4.9935713700e-03 0.0000e+00 0.0000e+00
       11  1    1    2    0    0 -5.8414529289e-03 +9.4582332055e-03 +1.2443325219e-01 1.2492988480e-01 5.1099893000e-04 0.0000e+00 1.0000e+00
<vert_displacement>
282.44497002460304
</vert_displacement>
</event>
<event>
 4   1200 +8.5212000e+10 1.36989200e-02 7.81665300e-03            nan
       50 -1    0    0    0    0 +5.5201497381e-03 +5.4151782690e-03 +3.8976955186e+00 3.8977063880e+00 4.9935713700e-03 0.0000e+00 0.0000e+00
       11 -1    0    0    0    0 -3.4395401669e-19 -3.3741336832e-19 -2.4286080868e-16 5.1100000000e-04 5.1099893000e-04 0.0000e+00 1.0000e+00
       50  1    1    2    0    0 -1.3625453034e-03 -5.7036436901e-03 +3.7313304456e+00 3.7313383950e+00 4.9935713700e-03 0.0000e+00 0.0000e+00
       11  1    1    2    0    0 +6.8826950415e-03 +1.1118821959e-02 +1.6636507297e-01 1.6687899303e-01 5.1099893000e-04 0.0000e+00 1.0000e+00
<vert_displacement>
325.64802480576407
</vert_displacement>
</event>
<event>
 4   1200 +8.5212000e+10 1.25344600e-02 7.81665300e-03            nan
       50 -1    0    0    0    0 -3.1419919127e-02 +6.1470714176e-02 +2.8579396794e+01 2.8579480609e+01 4.9935713700e-03 0.0000e+00 0.0000e+00
       11 -1    0    0    0    0 -9.6119505957e-19 +1.8805060107e-18 +8.7429808116e-16 5.1100000000e-04 5.1099893000e-04 0.0000e+00 1.0000e+00
       50  1    1    2    0    0 -2.8958243925e-02 +7.2451793228e-02 +2.8449450299e+01 2.8449557731e+01 4.9935713700e-03 0.0000e+00 0.0000e+00
       11  1    1    2    0    0 -2.4616752025e-03 -1.0981079051e-02 +1.2994649508e-01 1.3043387845e-01 5.1099893000e-04 0.0000e+00 1.0000e+00
<vert_displacement>
60.652779415350011
</vert_displacement>
</event>
<event>
 4   1200 +8.5212000e+10 3.15791600e-02 7.81665300e-03            nan
       50 -1    0    0    0    0 -8.2192949815e-03 +8.0130777001e-03 +3.8923770777e+00 3.8923972070e+00 4.9935713700e-03 0.0000e+00 0.0000e+00
       11 -1    0    0    0    0 -4.3957124422e-19 +4.2854265999e-19 +2.0816591190e-16 5.1100000000e-04 5.1099893000e-04 0.0000e+00 1.0000e+00
       50  1    1    2    0    0 -2.8467617021e-02 -1.5592753651e-02 +2.2038125758e+00 2.2040572461e+00 4.9935713700e-03 0.0000e+00 0.0000e+00
       11  1    1    2    0    0 +2.0248322039e-02 +2.3605831351e-02 +1.6885645019e+00 1.6888509609e+00 5.1099893000e-04 0.0000e+00 1.0000e+00
<vert_displacement>
448.91466206573483
</vert_displacement>
</event>
<event>
 4   1200 +8.5212000e+10 1.61684400e-02 7.81665300e-03            nan
       50 -1    0    0    0    0 +4.5693823596e-03 -2.3957036323e-02 +1.1903817489e+01 1.1903843521e+01 4.9935713700e-03 0.0000e+00 0.0000e+00
       11 -1    0    0    0    0 -5.3270966028e-19 +2.7929693066e-18 -1.3877758680e-15 5.1100000000e-04 5.1099893000e-04 0.0000e+00 1.0000e+00
       50  1    1    2    0    0 -2.6434021280e-03 -3.7111151168e-02 +1.1667699303e+01 1.1667759690e+01 4.9935713700e-03 0.0000e+00 0.0000e+00
       11  1    1    2    0    0 +7.2127844876e-03 +1.3154114846e-02 +2.3611818607e-01 2.3659483069e-01 5.1099893000e-04 0.0000e+00 1.0000e+00
<vert_displacement>
184.04292945083643
</vert_displacement>
</event>
<event>
 4   1200 +8.5212000e+10 6.18088200e-03 7.81665300e-03            nan
       50 -1    0    0    0    0 +1.6333947947e-03 +2.0339847841e-02 +1.0979276428e+01 1.0979296526e+01 4.9935713700e-03 0.0000e+00 0.0000e+00
       11 -1    0    0    0    0 +4.3356701571e-20 +5.3989930404e-19 +2.9143304064e-16 5.1100000000e-04 5.1099893000e-04 0.0000e+00 -1.0000e+00
       50  1    1    2    0    0 -1.9100993479e-03 +1.9464362887e-02 +1.0966280586e+01 1.0966299163e+01 4.9935713700e-03 0.0000e+00 0.0000e+00
       11  1    1    2    0    0 +3.5434941426e-03 +8.7548495451e-04 +1.2995842582e-02 1.3508362927e-02 5.1099893000e-04 0.0000e+00 -1.0000e+00
<vert_displacement>
436.37264633439963
</vert_displacement>
</event>
<event>
 4   1200 +8.5212000e+10 3.44199600e-02 7.81665300e-03            nan
       50 -1    0    0    0    0 -1.4720390404e-02 -8.8684054663e-03 +1.0138628831e+01 1.0138644626e+01 4.9935713700e-03 0.0000e+00 0.0000e+00
       11 -1    0    0    0    0 +2.5186611081e-19 +1.5173855669e-19 -1.7347209839e-16 5.1100000000e-04 5.1099893000e-04 0.0000e+00 1.0000e+00
       50  1    1    2    0    0 +9.1809007303e-03 +1.8258677740e-02 +8.8360265292e+00 8.8360515746e+00 4.9935713700e-03 0.0000e+00 0.0000e+00
       11  1    1    2    0    0 -2.3901291135e-02 -2.7127083207e-02 +1.3026023017e+00 1.3031040510e+00 5.1099893000e-04 0.0000e+00 1.0000e+00
<vert_displacement>
490.79703266157668
</vert_displacement>
</event>
<event>
 4   1200 +8.5212000e+10 1.12124100e-02 7.81665300e-03            nan
       50 -1    0    0    0    0 +2.0111638697e-02 +1.3864615805e-02 +7.3061380311e+00 7.3061805734e+00 4.9935713700e-03 0.0000e+00 0.0000e+00
       11 -1    0    0    0    0 -3.4381111309e-19 -2.3701743376e-19 -1.2489939218e-16 5.1100000000e-04 5.1099893000e-04 0.0000e+00 1.0000e+00
       50  1    1    2    0    0 +1.2843337157e-02 +6.4721865079e-03 +7.2061786206e+00 7.2061947024e+00 4.9935713700e-03 0.0000e+00 0.0000e+00
       11  1    1    2    0    0 +7.2683015396e-03 +7.3924292971e-03 +9.9959410526e-02 1.0049687105e-01 5.1099893000e-04 0.0000e+00 1.0000e+00
<vert_displacement>
30.284529317862642
</vert_displacement>
</event>
<event>
 4   1200 +8.5212000e+10 5.43078200e-02 7.81665300e-03            nan
       50 -1    0    0    0    0 +4.5018149620e-03 -3.7227161050e-03 +1.5109862997e+01 1.5109864951e+01 4.9935713700e-03 0.0000e+00 0.0000e+00
       11 -1    0    0    0    0 +2.0260184879e-19 -1.6753890859e-19 +6.8001155176e-16 5.1100000000e-04 5.1099893000e-04 0.0000e+00 1.0000e+00
       50  1    1    2    0    0 +3.6882803659e-03 -5.6853878703e-02 +1.1271885985e+01 1.1272031075e+01 4.9935713700e-03 0.0000e+00 0.0000e+00
       11  1    1    2    0    0 +8.1353459609e-04 +5.3131162598e-02 +3.8379770115e+00 3.8383448756e+00 5.1099893000e-04 0.0000e+00 1.0000e+00
<vert_displacement>
33.167793100296571
</vert_displacement>
</event>
<event>
 4   1200 +8.5212000e+10 2.65565500e-02 7.81665300e-03            nan
       50 -1    0    0    0    0 -1.6191319508e-02 -1.0588199154e-03 +5.6552739253e+00 5.6552994073e+00 4.9935713700e-03 0.0000e+00 0.0000e+00
       11 -1    0    0    0    0 +2.7415498249e-18 +1.7928171650e-19 -9.5756341737e-16 5.1100000000e-04 5.1099893000e-04 0.0000e+00 1.0000e+00
       50  1    1    2    0    0 -2.2759836792e-02 -2.5476084877e-02 +4.8838464965e+00 4.8839685275e+00 4.9935713700e-03 0.0000e+00 0.0000e+00
       11  1    1    2    0    0 +6.5685172841e-03 +2.4417264961e-02 +7.7142742889e-01 7.7184187980e-01 5.1099893000e-04 0.0000e+00 1.0000e+00
<vert_displacement>
93.006084714701288
</vert_displacement>
</event>
<event>
 4   1200 +8.5212000e+10 5.43159000e-03 7.81665300e-03            nan
       50 -1    0    0    0    0 -3.8446450364e-02 +1.2868815893e-02 +2.0138070730e+01 2.0138112160e+01 4.9935713700e-03 0.0000e+00 0.0000e+00
       11 -1    0    0    0    0 +6.8886020691e-19 -2.3057564729e-19 -3.6082175177e-16 5.1100000000e-04 5.1099893000e-04 0.0000e+00 1.0000e+00
       50  1    1    2    0    0 -3.9029374875e-02 +1.0812524599e-02 +2.0133601697e+01 2.0133643049e+01 4.9935713700e-03 0.0000e+00 0.0000e+00
       11  1    1    2    0    0 +5.8292451094e-04 +2.0562912939e-03 +4.4690327201e-03 4.9801112669e-03 5.1099893000e-04 0.0000e+00 1.0000e+00
<vert_displacement>
108.38193059185335
</vert_displacement>
</event>
<event>
 4   1200 +8.5212000e+10 7.73965200e-03 7.81665300e-03            nan
       50 -1    0    0    0    0 -5.4742033572e-02 +2.4253459163e-02 +2.4182149617e+01 2.4182224256e+01 4.9935713700e-03 0.0000e+00 0.0000e+00
       11 -1    0    0    0    0 +4.5238419812e-18 -2.0042882880e-18 -1.9983953188e-15 5.1100000000e-04 5.1099893000e-04 0.0000e+00 1.0000e+00
       50  1    1    2    0    0 -5.6513815782e-02 +2.9835702951e-02 +2.4147876833e+01 2.4147961911e+01 4.9935713700e-03 0.0000e+00 0.0000e+00
       11  1    1    2    0    0 +1.7717822108e-03 -5.5822437881e-03 +3.4272784241e-02 3.4773344927e-02 5.1099893000e-04 0.0000e+00 1.0000e+00
<vert_displacement>
146.44602126147367
</vert_displacement>
</event>
<event>
 4   1200 +8.5212000e+10 1.26340100e-02 7.81665300e-03            nan
       50 -1    0    0    0    0 +2.0861967675e-02 -1.7837635028e-03 +6.9914683688e+00 6.9915015048e+00 4.9935713700e-03 0.0000e+00 0.0000e+00
       11 -1    0    0    0    0 +4.5550993263e-19 -3.8947524301e-20 +1.5265498132e-16 5.1100000000e-04 5.1099893000e-04 0.0000e+00 1.0000e+00
       50  1    1    2    0    0 +9.0856891681e-03 -4.0481845955e-03 +6.8571176135e+00 6.8571266460e+00 4.9935713700e-03 0.0000e+00 0.0000e+00
       11  1    1    2    0    0 +1.1776278507e-02 +2.2644210927e-03 +1.3435075528e-01 1.3488585879e-01 5.1099893000e-04 0.0000e+00 1.0000e+00
<vert_displacement>
242.78195297004109
</vert_displacement>
</event>
<event>
 4   1200 +8.5212000e+10 2.54284500e-02 7.81665300e-03            nan
       50 -1    0    0    0    0 +5.1916609016e-03 +1.8857895466e-03 +2.6839337113e+00 2.6839440404e+00 4.9935713700e-03 0.0000e+00 0.0000e+00
       11 -1    0    0    0    0 -6.0399921516e-19 -2.1939325924e-19 -3.1224956443e-16 5.1100000000e-04 5.1099893000e-04 0.0000e+00 1.0000e+00
       50  1    1    2    0    0 -1.4772386923e-02 +1.8327750932e-02 +1.7419648166e+00 1.7421310192e+00 4.9935713700e-03 0.0000e+00 0.0000e+00
       11  1    1    2    0    0 +1.9964047825e-02 -1.6441961385e-02 +9.4196889469e-01 9.4232402123e-01 5.1099893000e-04 0.0000e+00 1.0000e+00
<vert_displacement>
127.58909363084372
</vert_displacement>
</event>
<event>
 4   1200 +8.5212000e+10 3.19935600e-02 7.81665300e-03            nan
       50 -1    0    0    0    0 -1.8346916635e-02 -7.9219066845e-03 +6.2919948467e+00 6.2920285642e+00 4.9935713700e-03 0.0000e+00 0.0000e+00
       11 -1    0    0    0    0 +1.5174837509e-18 +6.5522533890e-19 -5.2041441789e-16 5.1100000000e-04 5.1099893000e-04 0.0000e+00 1.0000e+00
       50  1    1    2    0    0 -1.5581717318e-02 -3.7988914067e-02 +5.0806250191e+00 5.0807933896e+00 4.9935713700e-03 0.0000e+00 0.0000e+00
       11  1    1    2    0    0 -2.7651993171e-03 +3.0067007382e-02 +1.2113698276e+00 1.2117461746e+00 5.1099893000e-04 0.0000e+00 1.0000e+00
<vert_displacement>
411.94485780056374
</vert_displacement>
</event>
<event>
 4   1200 +8.5212000e+10 1.01288300e-02 7.81665300e-03            nan
       50 -1    0    0    0    0 -2.5298980816e-02 +7.9072831304e-03 +1.4109737198e+01 1.4109762978e+01 4.9935713700e-03 0.0000e+00 0.0000e+00
       11 -1    0    0    0    0 -4.9766096009e-20 +1.5554563810e-20 +2.7755526641e-17 5.1100000000e-04 5.1099893000e-04 0.0000e+00 -1.0000e+00
       50  1    1    2    0    0 -3.1278004243e-02 +1.4208876020e-02 +1.4033319934e+01 1.4033362872e+01 4.9935713700e-03 0.0000e+00 0.0000e+00
       11  1    1    2    0    0 +5.9790234271e-03 -6.3015928893e-03 +7.6417263856e-02 7.6911105370e-02 5.1099893000e-04 0.0000e+00 -1.0000e+00
<vert_displacement>
139.90248093251699
</vert_displacement>
</event>
<event>
 4   1200 +8.5212000e+10 2.69510600e-02 7.81665300e-03            nan
       50 -1    0    0    0    0 -1.8979863117e-02 -1.8322311903e-02 +1.3237327380e+01 1.3237354609e+01 4.9935713700e-03 0.0000e+00 0.0000e+00
       11 -1    0    0    0    0 +1.3331743498e-18 +1.2869869560e-18 -9.2980993668e-16 5.1100000000e-04 5.1099893000e-04 0.0000e+00 1.0000e+00
       50  1    1    2    0    0 +8.0429205563e-03 -1.2180319686e-02 +1.2511102400e+01 1.2511111911e+01 4.9935713700e-03 0.0000e+00 0.0000e+00
       11  1    1    2    0    0 -2.7022783673e-02 -6.1419922172e-03 +7.2622497975e-01 7.2675369778e-01 5.1099893000e-04 0.0000e+00 1.0000e+00
<vert_displacement>
430.77307056859138
</vert_displacement>
</event>
<event>
 4   1200 +8.5212000e+10 1.45788900e-02 7.81665300e-03            nan
       50 -1    0    0    0    0 +8.5770980447e-03 +1.6760270494e-03 +1.4077595910e+01 1.4077599509e+01 4.9935713700e-03 0.0000e+00 0.0000e+00
       11 -1    0    0    0    0 -1.6910717497e-19 -3.3044766192e-20 -2.7755570267e-16 5.1100000000e-04 5.1099893000e-04 0.0000e+00 1.0000e+00
       50  1    1    2    0    0 +1.3822071817e-02 +1.4259295527e-02 +1.3891552074e+01 1.3891567166e+01 4.9935713700e-03 0.0000e+00 0.0000e+00
       11  1    1    2    0    0 -5.2449737724e-03 -1.2583268477e-02 +1.8604383623e-01 1.8654334219e-01 5.1099893000e-04 0.0000e+00 1.0000e+00
<vert_displacement>
255.27327211288099
</vert_displacement>
</event>
<event>
 4   1200 +8.5212000e+10 1.76276300e-02 7.81665300e-03            nan
       50 -1    0    0    0    0 +1.2201064145e-02 -1.4900660985e-02 +1.0680800008e+01 1.0680818538e+01 4.9935713700e-03 0.0000e+00 0.0000e+00
       11 -1    0    0    0    0 +3.3291453645e-19 -4.0657491724e-19 +2.9143307021e-16 5.1100000000e-04 5.1099893000e-04 0.0000e+00 1.0000e+00
       50  1    1    2    0    0 -9.1875207350e-04 -2.5552986066e-02 +1.0393389484e+01 1.0393422136e+01 4.9935713700e-03 0.0000e+00 0.0000e+00
       11  1    1    2    0    0 +1.3119816218e-02 +1.0652325081e-02 +2.8741052415e-01 2.8790740199e-01 5.1099893000e-04 0.0000e+00 1.0000e+00
<vert_displacement>
354.63769269206733
</vert_displacement>
</event>
<event>
 4   1200 +8.5212000e+10 6.45959200e-03 7.81665300e-03            nan
       50 -1    0    0    0    0 -4.6548623505e-03 +2.5641010348e-02 +1.4537842499e+01 1.4537866714e+01 4.9935713700e-03 0.0000e+00 0.0000e+00
       11 -1    0    0    0    0 -1.1330957457e-19 +6.2415851540e-19 +3.5388302053e-16 5.1100000000e-04 5.1099893000e-04 0.0000e+00 1.0000e+00
       50  1    1    2    0    0 -9.3043334020e-04 +2.7332000677e-02 +1.4521392330e+01 1.4521418940e+01 4.9935713700e-03 0.0000e+00 0.0000e+00
       11  1    1    2    0    0 -3.7244290103e-03 -1.6909903283e-03 +1.6450169420e-02 1.6958773941e-02 5.1099893000e-04 0.0000e+00 1.0000e+00
<vert_displacement>
379.08921947457497
</vert_displacement>
</event>
<event>
 4   1200 +8.5212000e+10 1.06987800e-02 7.81665300e-03            nan
       50 -1    0    0    0    0 +1.8866798496e-02 -1.8095977928e-02 +9.2487349240e+00 9.2487732187e+00 4.9935713700e-03 0.0000e+00 0.0000e+00
       11 -1    0    0    0    0 -3.3971571120e-19 +3.2583631042e-19 -1.6653278843e-16 5.1100000000e-04 5.1099893000e-04 0.0000e+00 1.0000e+00
       50  1    1    2    0    0 +2.7038542094e-02 -1.3476662981e-02 +9.1602729906e+00 9.1603241701e+00 4.9935713700e-03 0.0000e+00 0.0000e+00
       11  1    1    2    0    0 -8.1717435977e-03 -4.6193149465e-03 +8.8461933407e-02 8.8960048595e-02 5.1099893000e-04 0.0000e+00 1.0000e+00
<vert_displacement>
123.15868611414608
</vert_displacement>
</event>
<event>
 4   1200 +8.5212000e+10 5.65663600e-03 7.81665300e-03            nan
       50 -1    0    0    0    0 +3.7802757337e-02 -3.2711745653e-02 +1.8614579210e+01 1.8614647007e+01 4.9935713700e-03 0.0000e+00 0.0000e+00
       11 -1    0    0    0    0 +3.6074382143e-18 -3.1216135974e-18 +1.7763504336e-15 5.1100000000e-04 5.1099893000e-04 0.0000e+00 1.0000e+00
       50  1    1    2    0    0 +3.6510531320e-02 -3.0369799761e-02 +1.8607673410e+01 1.8607734683e+01 4.9935713700e-03 0.0000e+00 0.0000e+00
       11  1    1    2    0    0 +1.2922260170e-03 -2.3419458912e-03 +6.9057998243e-03 7.4233247104e-03 5.1099893000e-04 0.0000e+00 1.0000e+00
<vert_displacement>
208.51946566902689
</vert_displacement>
</event>
<event>
 4   1200 +8.5212000e+10 5.60833700e-02 7.81665300e-03            nan
       50 -1    0    0    0    0 -1.9796499216e-02 -4.3719683243e-02 +2.2510971689e+01 2.2511023402e+01 4.9935713700e-03 0.0000e+00 0.0000e+00
       11 -1    0    0    0    0 -1.4401091786e-18 -3.1804167211e-18 +1.6375752397e-15 5.1100000000e-04 5.1099893000e-04 0.0000e+00 1.0000e+00
       50  1    1    2    0    0 -3.9668611377e-03 +1.7772007604e-02 +1.8867368691e+01 1.8867378139e+01 4.9935713700e-03 0.0000e+00 0.0000e+00
       11  1    1    2    0    0 -1.5829638078e-02 -6.1491690847e-02 +3.6436029970e+00 3.6441562627e+00 5.1099893000e-04 0.0000e+00 1.0000e+00
<vert_displacement>
410.91571257758449
</vert_displacement>
</event>
<event>
 4   1200 +8.5212000e+10 5.47553500e-02 7.81665300e-03            nan
       50 -1    0    0    0    0 +8.1683184715e-02 -3.3671678096e-02 +2.3884602246e+01 2.3884766176e+01 4.9935713700e-03 0.0000e+00 0.0000e+00
       11 -1    0    0    0    0 +1.3716072214e-17 -5.6540788652e-18 +4.0106532372e-15 5.1100000000e-04 5.1099893000e-04 0.0000e+00 1.0000e+00
       50  1    1    2    0    0 +7.3080471555e-02 -8.3335612651e-02 +2.0493271560e+01 2.0493571913e+01 4.9935713700e-03 0.0000e+00 0.0000e+00
       11  1    1    2    0    0 +8.6027131600e-03 +4.9663934555e-02 +3.3913306859e+00 3.3917052637e+00 5.1099893000e-04 0.0000e+00 1.0000e+00
<vert_displacement>
186.28344726476840
</vert_displacement>
</event>
<event>
 4   1200 +8.5212000e+10 5.81336200e-03 7.81665300e-03            nan
       50 -1    0    0    0    0 -2.7489896566e-02 +8.0277421077e-03 +1.1964348864e+01 1.1964384181e+01 4.9935713700e-03 0.0000e+00 0.0000e+00
       11 -1    0    0    0    0 -6.0583817758e-19 +1.7692000539e-19 +2.6367721299e-16 5.1100000000e-04 5.1099893000e-04 0.0000e+00 1.0000e+00
       50  1    1    2    0    0 -2.4502517150e-02 +8.2535151728e-03 +1.1955680172e+01 1.1955709172e+01 4.9935713700e-03 0.0000e+00 0.0000e+00
       11  1    1    2    0    0 -2.9873794162e-03 -2.2577306508e-04 +8.6686927364e-03 9.1860090854e-03 5.1099893000e-04 0.0000e+00 1.0000e+00
<vert_displacement>
322.90044540657448
</vert_displacement>
</event>
<event>
 4   1200 +8.5212000e+10 1.69163700e-02 7.81665300e-03            nan
       50 -1    0    0    0    0 +4.2160122094e-02 -2.8750463638e-02 +1.3341504216e+01 1.3341602743e+01 4.9935713700e-03 0.0000e+00 0.0000e+00
       11 -1    0    0    0    0 +1.4033438845e-18 -9.5698933776e-19 +4.4408596139e-16 5.1100000000e-04 5.1099893000e-04 0.0000e+00 1.0000e+00
       50  1    1    2    0    0 +4.2896808421e-02 -1.2101624959e-02 +1.3080817284e+01 1.3080894172e+01 4.9935713700e-03 0.0000e+00 0.0000e+00
       11  1    1    2    0    0 -7.3668632703e-04 -1.6648838678e-02 +2.6068693279e-01 2.6121957159e-01 5.1099893000e-04 0.0000e+00 1.0000e+00
<vert_displacement>
302.75700422335240
</vert_displacement>
</event>
<event>
 4   1200 +8.5212000e+10 5.93264800e-03 7.81665300e-03            nan
       50 -1    0    0    0    0 -2.1357626294e-02 -1.4836717367e-02 +7.3769618806e+00 7.3770094076e+00 4.9935713700e-03 0.0000e+00 0.0000e+00
       11 -1    0    0    0    0 +2.1294569164e-18 +1.4792912836e-18 -7.3551818366e-16 5.1100000000e-04 5.1099893000e-04 0.0000e+00 1.0000e+00
       50  1    1    2    0    0 -2.2051967243e-02 -1.7936930624e-02 +7.3668994427e+00 7.3669559764e+00 4.9935713700e-03 0.0000e+00 0.0000e+00
       11  1    1    2    0    0 +6.9434094919e-04 +3.1002132567e-03 +1.0062437858e-02 1.0564431226e-02 5.1099893000e-04 0.0000e+00 1.0000e+00
<vert_displacement>
371.60701979115652
</vert_displacement>
</event>
<event>
 4   1200 +8.5212000e+10 4.60265900e-02 7.81665300e-03            nan
       50 -1    0    0    0    0 +3.0243218686e-02 -4.6579458670e-02 +1.8220769641e+01 1.8220854962e+01 4.9935713700e-03 0.0000e+00 0.0000e+00
       11 -1    0    0    0    0 +1.0595887765e-18 -1.6319384565e-18 +6.3837527386e-16 5.1100000000e-04 5.1099893000e-04 0.0000e+00 1.0000e+00
       50  1    1    2    0    0 +7.0673707924e-02 -5.1872766384e-02 +1.5867992909e+01 1.5868235864e+01 4.9935713700e-03 0.0000e+00 0.0000e+00
       11  1    1    2    0    0 -4.0430489238e-02 +5.2933077143e-03 +2.3527767319e+00 2.3531300973e+00 5.1099893000e-04 0.0000e+00 1.0000e+00
<vert_displacement>
384.79384704462973
</vert_displacement>
</event>
<event>
 4   1200 +8.5212000e+10 2.17087100e-02 7.81665300e-03            nan
       50 -1    0    0    0    0 -3.3379291123e-02 -1.8253331268e-03 +1.1161614981e+01 1.1161666158e+01 4.9935713700e-03 0.0000e+00 0.0000e+00
       11 -1    0    0    0    0 -4.0256878891e-18 -2.2014312512e-19 +1.3461393799e-15 5.1100000000e-04 5.1099893000e-04 0.0000e+00 1.0000e+00
       50  1    1    2    0    0 -4.3694337706e-02 +1.5855471179e-02 +1.0706223097e+01 1.0706325164e+01 4.9935713700e-03 0.0000e+00 0.0000e+00
       11  1    1    2    0    0 +1.0315046583e-02 -1.7680804306e-02 +4.5539188442e-01 4.5585199412e-01 5.1099893000e-04 0.0000e+00 1.0000e+00
<vert_displacement>
375.76811165086872
</vert_displacement>
</event>
<event>
 4   1200 +8.5212000e+10 4.82633000e-02 7.81665300e-03            nan
       50 -1    0    0    0    0 -2.3365103340e-02 +2.6234483133e-02 +2.0294811401e+01 2.0294842422e+01 4.9935713700e-03 0.0000e+00 0.0000e+00
       11 -1    0    0    0    0 -3.5469515236e-18 +3.9825391981e-18 +3.0808642775e-15 5.1100000000e-04 5.1099893000e-04 0.0000e+00 1.0000e+00
       50  1    1    2    0    0 -2.5393190666e-02 +7.0636556238e-02 +1.7710404553e+01 1.7710564325e+01 4.9935713700e-03 0.0000e+00 0.0000e+00
       11  1    1    2    0    0 +2.0280873257e-03 -4.4402073105e-02 +2.5844068486e+00 2.5847890972e+00 5.1099893000e-04 0.0000e+00 1.0000e+00
<vert_displacement>
405.09195222784638
</vert_displacement>
</event>
<event>
 4   1200 +8.5212000e+10 1.42251400e-02 7.81665300e-03            nan
       50 -1    0    0    0    0 +2.3512173048e-02 -2.4997446155e-02 +1.4265233494e+01 1.4265275647e+01 4.9935713700e-03 0.0000e+00 0.0000e+00
       11 -1    0    0    0    0 +1.3952842952e-18 -1.4834249462e-18 +8.4654260669e-16 5.1100000000e-04 5.1099893000e-04 0.0000e+00 1.0000e+00
       50  1    1    2    0    0 +2.5076633751e-02 -1.1499262096e-02 +1.4089478576e+01 1.4089506470e+01 4.9935713700e-03 0.0000e+00 0.0000e+00
       11  1    1    2    0    0 -1.5644607026e-03 -1.3498184059e-02 +1.7575491780e-01 1.7628017689e-01 5.1099893000e-04 0.0000e+00 1.0000e+00
<vert_displacement>
30.685796720099070
</vert_displacement>
</event>
<event>
 4   1200 +8.5212000e+10 1.95928000e-02 7.81665300e-03            nan
       50 -1    0    0    0    0 +5.0035751623e-03 +9.4264360446e-03 +1.0124703321e+01 1.0124710177e+01 4.9935713700e-03 0.0000e+00 0.0000e+00
       11 -1    0    0    0    0 -6.7554510884e-19 -1.2726865405e-18 -1.3669613397e-15 5.1100000000e-04 5.1099893000e-04 0.0000e+00 1.0000e+00
       50  1    1    2    0    0 +2.3258714236e-02 +1.3455808664e-02 +9.7603123697e+00 9.7603506350e+00 4.9935713700e-03 0.0000e+00 0.0000e+00
       11  1    1    2    0    0 -1.8255139073e-02 -4.0293726196e-03 +3.6439095154e-01 3.6487054229e-01 5.1099893000e-04 0.0000e+00 1.0000e+00
<vert_displacement>
331.99623788956035
</vert_displacement>
</event>
<event>
 4   1200 +8.5212000e+10 3.61685000e-02 7.81665300e-03            nan
       50 -1    0    0    0    0 +1.7479653508e-02 +1.2329749793e-02 +5.3631148175e+00 5.3631598002e+00 4.9935713700e-03 0.0000e+00 0.0000e+00
       11 -1    0    0    0    0 -3.8446024554e-19 -2.7118950789e-19 -1.1796025812e-16 5.1100000000e-04 5.1099893000e-04 0.0000e+00 1.0000e+00
       50  1    1    2    0    0 -2.3057261468e-02 +1.9103647712e-02 +3.3433529371e+00 3.3434907484e+00 4.9935713700e-03 0.0000e+00 0.0000e+00
       11  1    1    2    0    0 +4.0536914976e-02 -6.7738979194e-03 +2.0197618803e+00 2.0201800518e+00 5.1099893000e-04 0.0000e+00 1.0000e+00
<vert_displacement>
300.44842321187241
</vert_displacement>
</event>
<event>
 4   1200 +8.5212000e+10 3.90252500e-02 7.81665300e-03            nan
       50 -1    0    0    0    0 +1.2508705716e-02 -1.0668500533e-02 +8.0086141586e+00 8.0086325900e+00 4.9935713700e-03 0.0000e+00 0.0000e+00
       11 -1    0    0    0    0 -2.9262275910e-19 +2.4957386740e-19 -1.8734974065e-16 5.1100000000e-04 5.1099893000e-04 0.0000e+00 1.0000e+00
       50  1    1    2    0    0 -1.4909164747e-02 +2.1956251213e-02 +6.0740567783e+00 6.0741168117e+00 4.9935713700e-03 0.0000e+00 0.0000e+00
       11  1    1    2    0    0 +2.7417870463e-02 -3.2624751746e-02 +1.9345573802e+00 1.9350267783e+00 5.1099893000e-04 0.0000e+00 1.0000e+00
<vert_displacement>
325.14417135700376
</vert_displacement>
</event>
<event>
 4   1200 +8.5212000e+10 1.98270600e-02 7.81665300e-03            nan
       50 -1    0    0    0    0 -1.3208055296e-02 -1.1519246729e-02 +7.8604242824e+00 7.8604454060e+00 4.9935713700e-03 0.0000e+00 0.0000e+00
       11 -1    0    0    0    0 +1.1542961633e-18 +1.0067055298e-18 -6.8694878904e-16 5.1100000000e-04 5.1099893000e-04 0.0000e+00 1.0000e+00
       50  1    1    2    0    0 -6.2731697880e-04 +4.0521971783e-03 +7.4819051523e+00 7.4819079423e+00 4.9935713700e-03 0.0000e+00 0.0000e+00
       11  1    1    2    0    0 -1.2580738317e-02 -1.5571443908e-02 +3.7851913011e-01 3.7904846369e-01 5.1099893000e-04 0.0000e+00 1.0000e+00
<vert_displacement>
447.04020868433690
</vert_displacement>
</event>
<event>
 4   1200 +8.5212000e+10 3.17459400e-02 7.81665300e-03            nan
       50 -1    0    0    0    0 +1.0775568753e-01 -2.5395736325e-02 +4.2674526317e+01 4.2674670210e+01 4.9935713700e-03 0.0000e+00 0.0000e+00
       11 -1    0    0    0    0 -1.7556098156e-17 +4.1376009927e-18 -6.9527482955e-15 5.1100000000e-04 5.1099893000e-04 0.0000e+00 1.0000e+00
       50  1    1    2    0    0 +1.3388468999e-01 -3.7618377021e-02 +4.1690004081e+01 4.1690236333e+01 4.9935713700e-03 0.0000e+00 0.0000e+00
       11  1    1    2    0    0 -2.6129002463e-02 +1.2222640696e-02 +9.8452223531e-01 9.8494487696e-01 5.1099893000e-04 0.0000e+00 1.0000e+00
<vert_displacement>
58.131897859147244
</vert_displacement>
</event>
<event>
 4   1200 +8.5212000e+10 2.37970400e-02 7.81665300e-03            nan
       50 -1    0    0    0    0 -7.3194591394e-02 +2.9720742084e-02 +2.1700186631e+01 2.1700331000e+01 4.9935713700e-03 0.0000e+00 0.0000e+00
       11 -1    0    0    0    0 +2.6681346469e-18 -1.0833989257e-18 -7.9102866335e-16 5.1100000000e-04 5.1099893000e-04 0.0000e+00 1.0000e+00
       50  1    1    2    0    0 -7.5900913075e-02 +6.1563990440e-03 +2.1156864250e+01 2.1157001883e+01 4.9935713700e-03 0.0000e+00 0.0000e+00
       11  1    1    2    0    0 +2.7063216812e-03 +2.3564343040e-02 +5.4332238083e-01 5.4384011719e-01 5.1099893000e-04 0.0000e+00 1.0000e+00
<vert_displacement>
173.83851564169927
</vert_displacement>
</event>
<event>
 4   1200 +8.5212000e+10 1.37049900e-02 7.81665300e-03            nan
       50 -1    0    0    0    0 +1.5992810662e-02 +2.6155927826e-02 +1.0498168863e+01 1.0498214815e+01 4.9935713700e-03 0.0000e+00 0.0000e+00
       11 -1    0    0    0    0 -1.0570599946e-19 -1.7288008663e-19 -6.9388643161e-17 5.1100000000e-04 5.1099893000e-04 0.0000e+00 1.0000e+00
       50  1    1    2    0    0 +2.8022340790e-02 +2.9243463278e-02 +1.0336247368e+01 1.0336327928e+01 4.9935713700e-03 0.0000e+00 0.0000e+00
       11  1    1    2    0    0 -1.2029530129e-02 -3.0875354520e-03 +1.6192149445e-01 1.6239788778e-01 5.1099893000e-04 0.0000e+00 1.0000e+00
<vert_displacement>
90.561031022386445
</vert_displacement>
</event>
<event>
 4   1200 +8.5212000e+10 1.55198200e-02 7.81665300e-03            nan
       50 -1    0    0    0    0 +2.4279397993e-02 -9.0549327399e-03 +1.2292267616e+01 1.2292295944e+01 4.9935713700e-03 0.0000e+00 0.0000e+00
       11 -1    0    0    0    0 +4.9476889820e-18 -1.8452265976e-18 +2.5049351334e-15 5.1100000000e-04 5.1099893000e-04 0.0000e+00 1.0000e+00
       50  1    1    2    0    0 +2.2874987036e-02 -2.3558344807e-02 +1.2077199558e+01 1.2077245230e+01 4.9935713700e-03 0.0000e+00 0.0000e+00
       11  1    1    2    0    0 +1.4044109565e-03 +1.4503412068e-02 +2.1506805874e-01 2.1556171354e-01 5.1099893000e-04 0.0000e+00 1.0000e+00
<vert_displacement>
413.91995133787520
</vert_displacement>
</event>
<event>
 4   1200 +8.5212000e+10 2.75616600e-02 7.81665300e-03            nan
       50 -1    0    0    0    0 -1.6989874051e-02 +5.4842038699e-03 +4.9746638108e+00 4.9746983525e+00 4.9935713700e-03 0.0000e+00 0.0000e+00
       11 -1    0    0    0    0 +1.8958495091e-18 -6.1196599715e-19 -5.5510793757e-16 5.1100000000e-04 5.1099893000e-04 0.0000e+00 1.0000e+00
       50  1    1    2    0    0 +1.2597238195e-02 +9.7007521537e-03 +4.1018897426e+00 4.1019235965e+00 4.9935713700e-03 0.0000e+00 0.0000e+00
       11  1    1    2    0    0 -2.9587112246e-02 -4.2165482837e-03 +8.7277406822e-01 8.7328575608e-01 5.1099893000e-04 0.0000e+00 1.0000e+00
<vert_displacement>
232.85269185247265
</vert_displacement>
</event>
<event>
 4   1200 +8.5212000e+10 1.72621000e-02 7.81665300e-03            nan
       50 -1    0    0    0    0 +9.1398653421e-02 +2.6426563453e-02 +2.6978172058e+01 2.6978340287e+01 4.9935713700e-03 0.0000e+00 0.0000e+00
       11 -1    0    0    0    0 -1.0296483648e-17 -2.9770753539e-18 -3.0392166303e-15 5.1100000000e-04 5.1099893000e-04 0.0000e+00 1.0000e+00
       50  1    1    2    0    0 +7.4053913531e-02 +2.7917680347e-02 +2.6708354029e+01 2.6708471751e+01 4.9935713700e-03 0.0000e+00 0.0000e+00
       11  1    1    2    0    0 +1.7344739890e-02 -1.4911168946e-03 +2.6981802882e-01 2.7037953552e-01 5.1099893000e-04 0.0000e+00 1.0000e+00
<vert_displacement>
476.83496762362364
</vert_displacement>
</event>
<event>
 4   1200 +8.5212000e+10 2.84442200e-02 7.81665300e-03            nan
       50 -1    0    0    0    0 +4.2625931082e-02 +3.4289017516e-02 +1.4250903915e+01 1.4251009790e+01 4.9935713700e-03 0.0000e+00 0.0000e+00
       11 -1    0    0    0    0 +2.0132154196e-18 +1.6194644206e-18 +6.7306774954e-16 5.1100000000e-04 5.1099893000e-04 0.0000e+00 1.0000e+00
       50  1    1    2    0    0 +1.2349039843e-02 +3.5317535780e-02 +1.3437144980e+01 1.3437197996e+01 4.9935713700e-03 0.0000e+00 0.0000e+00
       11  1    1    2    0    0 +3.0276891239e-02 -1.0285182648e-03 +8.1375893509e-01 8.1432279444e-01 5.1099893000e-04 0.0000e+00 1.0000e+00
<vert_displacement>
323.71938323681206
</vert_displacement>
</event>
<event>
 4   1200 +8.5212000e+10 7.91478600e-03 7.81665300e-03            nan
       50 -1    0    0    0    0 -2.1156942179e-02 -2.1891497805e-02 +1.0860579610e+01 1.0860623429e+01 4.9935713700e-03 0.0000e+00 0.0000e+00
       11 -1    0    0    0    0 -9.4620769716e-20 -9.7905942881e-20 +4.8572066491e-17 5.1100000000e-04 5.1099893000e-04 0.0000e+00 1.0000e+00
       50  1    1    2    0    0 -1.5945242670e-02 -2.5177352325e-02 +1.0823558390e+01 1.0823600570e+01 4.9935713700e-03 0.0000e+00 0.0000e+00
       11  1    1    2    0    0 -5.2116995097e-03 +3.2858545200e-03 +3.7021220324e-02 3.7533858394e-02 5.1099893000e-04 0.0000e+00 1.0000e+00
<vert_displacement>
495.02591075063998
</vert_displacement>
</event>
<event>
 4   1200 +8.5212000e+10 1.34232900e-02 7.81665300e-03            nan
       50 -1    0    0    0    0 -1.1491235191e-02 +3.6159174665e-02 +3.0184111921e+01 3.0184136180e+01 4.9935713700e-03 0.0000e+00 0.0000e+00
       11 -1    0    0    0    0 +9.7741711406e-19 -3.0756133315e-18 -2.5673887162e-15 5.1100000000e-04 5.1099893000e-04 0.0000e+00 1.0000e+00
       50  1    1    2    0    0 -2.3881726988e-02 +3.6506177898e-02 +3.0031424165e+01 3.0031456264e+01 4.9935713700e-03 0.0000e+00 0.0000e+00
       11  1    1    2    0    0 +1.2390491797e-02 -3.4700323258e-04 +1.5268775552e-01 1.5319091521e-01 5.1099893000e-04 0.0000e+00 1.0000e+00
<vert_displacement>
450.01527456090867
</vert_displacement>
</event>
<event>
 4   1200 +8.5212000e+10 1.70375400e-02 7.81665300e-03            nan
       50 -1    0    0    0    0 -3.4553582151e-02 +1.4896097186e-02 +2.2417280785e+01 2.2417312920e+01 4.9935713700e-03 0.0000e+00 0.0000e+00
       11 -1    0    0    0    0 -1.0481558356e-18 +4.5186143437e-19 +6.8001064465e-16 5.1100000000e-04 5.1099893000e-04 0.0000e+00 1.0000e+00
       50  1    1    2    0    0 -3.7432689680e-02 -1.2333176760e-03 +2.2154568402e+01 2.2154600623e+01 4.9935713700e-03 0.0000e+00 0.0000e+00
       11  1    1    2    0    0 +2.8791075289e-03 +1.6129414862e-02 +2.6271238280e-01 2.6322329775e-01 5.1099893000e-04 0.0000e+00 1.0000e+00
<vert_displacement>
346.89162364361283
</vert_displacement>
</event>
<event>
 4   1200 +8.5212000e+10 2.34208300e-02 7.81665300e-03            nan
       50 -1    0    0    0    0 -1.1823555535e-01 -5.7842049683e-02 +3.7177476299e+01 3.7177709643e+01 4.9935713700e-03 0.0000e+00 0.0000e+00
       11 -1    0    0    0    0 -6.8851009039e-18 -3.3682621728e-18 +2.1649213295e-15 5.1100000000e-04 5.1099893000e-04 0.0000e+00 1.0000e+00
       50  1    1    2    0    0 -1.2773615590e-01 -3.7053442762e-02 +3.6657873097e+01 3.6658114714e+01 4.9935713700e-03 0.0000e+00 0.0000e+00
       11  1    1    2    0    0 +9.5006005552e-03 -2.0788606921e-02 +5.1960320245e-01 5.2010592835e-01 5.1099893000e-04 0.0000e+00 1.0000e+00
<vert_displacement>
103.34112443252815
</vert_displacement>
</event>
<event>
 4   1200 +8.5212000e+10 1.72089000e-02 7.81665300e-03            nan
       50 -1    0    0    0    0 +3.7506973010e-02 -1.2187627984e-02 +1.2553409674e+01 1.2553472615e+01 4.9935713700e-03 0.0000e+00 0.0000e+00
       11 -1    0    0    0    0 +3.3170987496e-18 -1.0778679883e-18 +1.1102175460e-15 5.1100000000e-04 5.1099893000e-04 0.0000e+00 1.0000e+00
       50  1    1    2    0    0 +5.2802820976e-02 -8.4897894419e-03 +1.2282110412e+01 1.2282227865e+01 4.9935713700e-03 0.0000e+00 0.0000e+00
       11  1    1    2    0    0 -1.5295847967e-02 -3.6978385416e-03 +2.7129926203e-01 2.7175575003e-01 5.1099893000e-04 0.0000e+00 1.0000e+00
<vert_displacement>
284.96054363438537
</vert_displacement>
</event>
<event>
 4   1200 +8.5212000e+10 3.19198600e-02 7.81665300e-03            nan
       50 -1    0    0    0    0 +1.4455276102e-02 +1.6002499431e-02 +8.2697660331e+00 8.2697956573e+00 4.9935713700e-03 0.0000e+00 0.0000e+00
       11 -1    0    0    0    0 +1.5282432430e-18 +1.6918190600e-18 +8.7429765935e-16 5.1100000000e-04 5.1099893000e-04 0.0000e+00 1.0000e+00
       50  1    1    2    0    0 +3.9957547837e-02 +2.9290684884e-02 +7.1431859528e+00 7.1433595067e+00 4.9935713700e-03 0.0000e+00 0.0000e+00
       11  1    1    2    0    0 -2.5502271734e-02 -1.3288185453e-02 +1.1265800803e+00 1.1269471505e+00 5.1099893000e-04 0.0000e+00 1.0000e+00
<vert_displacement>
388.23879632450320
</vert_displacement>
</event>
<event>
 4   1200 +8.5212000e+10 5.34115800e-02 7.81665300e-03            nan
       50 -1    0    0    0    0 +8.1190786295e-02 +7.6197566213e-04 +3.5184060825e+01 3.5184154865e+01 4.9935713700e-03 0.0000e+00 0.0000e+00
       11 -1    0    0    0    0 +7.5257144062e-18 +7.0628842007e-20 +3.2612714509e-15 5.1100000000e-04 5.1099893000e-04 0.0000e+00 1.0000e+00
       50  1    1    2    0    0 +1.0089620187e-01 -4.5296866805e-02 +3.2156249020e+01 3.2156439601e+01 4.9935713700e-03 0.0000e+00 0.0000e+00
       11  1    1    2    0    0 -1.9705415573e-02 +4.6058842467e-02 +3.0278118048e+00 3.0282262641e+00 5.1099893000e-04 0.0000e+00 1.0000e+00
<vert_displacement>
100.78841463032761
</vert_displacement>
</event>
<event>
 4   1200 +8.5212000e+10 7.15747700e-03 7.81665300e-03            nan
       50 -1    0    0    0    0 -3.0967047166e-02 +2.2314833596e-02 +9.5137791495e+00 9.5138570281e+00 4.9935713700e-03 0.0000e+00 0.0000e+00
       11 -1    0    0    0    0 -4.7429961992e-19 +3.4177999073e-19 +1.4571559924e-16 5.1100000000e-04 5.1099893000e-04 0.0000e+00 1.0000e+00
       50  1    1    2    0    0 -3.5293728922e-02 +1.9639027355e-02 +9.4879718985e+00 9.4880591809e+00 4.9935713700e-03 0.0000e+00 0.0000e+00
       11  1    1    2    0    0 +4.3266817564e-03 +2.6758062414e-03 +2.5807250980e-02 2.6308847126e-02 5.1099893000e-04 0.0000e+00 1.0000e+00
<vert_displacement>
487.34246510046285
</vert_displacement>
</event>
<event>
 4   1200 +8.5212000e+10 1.10767900e-02 7.81665300e-03            nan
       50 -1    0    0    0    0 +2.3993322963e-02 +2.3742133050e-03 +2.4958248592e+01 2.4958260737e+01 4.9935713700e-03 0.0000e+00 0.0000e+00
       11 -1    0    0    0    0 +2.2680115157e-19 +2.2442673425e-20 +2.3592228265e-16 5.1100000000e-04 5.1099893000e-04 0.0000e+00 1.0000e+00
       50  1    1    2    0    0 +2.3039310763e-02 -7.4846368561e-03 +2.4862223613e+01 2.4862235916e+01 4.9935713700e-03 0.0000e+00 0.0000e+00
       11  1    1    2    0    0 +9.5401219962e-04 +9.8588501610e-03 +9.6024978700e-02 9.6535820916e-02 5.1099893000e-04 0.0000e+00 1.0000e+00
<vert_displacement>
241.36927065488413
</vert_displacement>
</event>
<event>
 4   1200 +8.5212000e+10 1.63984000e-02 7.81665300e-03            nan
       50 -1    0    0    0    0 +1.2484851943e-02 -6.8230557319e-03 +4.3942277460e+00 4.3942536164e+00 4.9935713700e-03 0.0000e+00 0.0000e+00
       11 -1    0    0    0    0 -6.1115377550e-19 +3.3399965736e-19 -2.1510458352e-16 5.1100000000e-04 5.1099893000e-04 0.0000e+00 1.0000e+00
       50  1    1    2    0    0 -2.8444405419e-03 -1.1955994754e-02 +4.1408157826e+00 4.1408370310e+00 4.9935713700e-03 0.0000e+00 0.0000e+00
       11  1    1    2    0    0 +1.5329292484e-02 +5.1329390216e-03 +2.5341196341e-01 2.5392758532e-01 5.1099893000e-04 0.0000e+00 1.0000e+00
<vert_displacement>
32.814793928590923
</vert_displacement>
</event>
<event>
 4   1200 +8.5212000e+10 6.16720600e-03 7.81665300e-03            nan
       50 -1    0    0    0    0 +3.4418840203e-02 -2.1366460463e-03 +2.1349362627e+01 2.1349391063e+01 4.9935713700e-03 0.0000e+00 0.0000e+00
       11 -1    0    0    0    0 +3.0204020948e-18 -1.8749993190e-19 +1.8734989100e-15 5.1100000000e-04 5.1099893000e-04 0.0000e+00 1.0000e+00
       50  1    1    2    0    0 +3.0792567831e-02 -2.4489100764e-03 +2.1336543701e+01 2.1336566646e+01 4.9935713700e-03 0.0000e+00 0.0000e+00
       11  1    1    2    0    0 +3.6262723719e-03 +3.1226403011e-04 +1.2818926270e-02 1.3335417157e-02 5.1099893000e-04 0.0000e+00 1.0000e+00
<vert_displacement>
144.81420335282095
</vert_displacement>
</event>
<event>
 4   1200 +8.5212000e+10 9.33576200e-03 7.81665300e-03            nan
       50 -1    0    0    0    0 +1.0771604161e-02 +2.4134407452e-02 +9.7660978388e+00 9.7661348767e+00 4.9935713700e-03 0.0000e+00 0.0000e+00
       11 -1    0    0    0    0 -1.1862594076e-18 -2.6578833998e-18 -1.0755246168e-15 5.1100000000e-04 5.1099893000e-04 0.0000e+00 1.0000e+00
       50  1    1    2    0    0 +1.8091738398e-02 +2.1218503748e-02 +9.7048268985e+00 9.7048682423e+00 4.9935713700e-03 0.0000e+00 0.0000e+00
       11  1    1    2    0    0 -7.3201342377e-03 +2.9159037039e-03 +6.1270940368e-02 6.1777634409e-02 5.1099893000e-04 0.0000e+00 1.0000e+00
<vert_displacement>
276.27169922122130
</vert_displacement>
</event>
<event>
 4   1200 +8.5212000e+10 8.26173000e-03 7.81665300e-03            nan
       50 -1    0    0    0    0 +2.3551192624e-02 -9.2010120877e-03 +7.0923622000e+00 7.0924090286e+00 4.9935713700e-03 0.0000e+00 0.0000e+00
       11 -1    0    0    0    0 -1.0599059179e-18 +4.1408549107e-19 -3.1918709120e-16 5.1100000000e-04 5.1099893000e-04 0.0000e+00 1.0000e+00
       50  1    1    2    0    0 +2.4592583764e-02 -1.5620308961e-02 +7.0497018571e+00 7.0497638258e+00 4.9935713700e-03 0.0000e+00 0.0000e+00
       11  1    1    2    0    0 -1.0413911406e-03 +6.4192968736e-03 +4.2660342918e-02 4.3156202864e-02 5.1099893000e-04 0.0000e+00 1.0000e+00
<vert_displacement>
386.01527543167805
</vert_displacement>
</event>
<event>
 4   1200 +8.5212000e+10 1.64930000e-02 7.81665300e-03            nan
       50 -1    0    0    0    0 +8.6754386437e-03 +2.9775288939e-03 +3.7680540796e+00 3.7680685519e+00 4.9935713700e-03 0.0000e+00 0.0000e+00
       11 -1    0    0    0    0 +4.7927472936e-20 +1.6449362544e-20 +2.0816620039e-17 5.1100000000e-04 5.1099893000e-04 0.0000e+00 1.0000e+00
       50  1    1    2    0    0 +9.4712908580e-03 +1.8429149897e-02 +3.5082102647e+00 3.5082750086e+00 4.9935713700e-03 0.0000e+00 0.0000e+00
       11  1    1    2    0    0 -7.9585221424e-04 -1.5451621004e-02 +2.5984381488e-01 2.6030454322e-01 5.1099893000e-04 0.0000e+00 1.0000e+00
<vert_displacement>
444.66058026547415
</vert_displacement>
</event>
<event>
 4   1200 +8.5212000e+10 1.57767000e-02 7.81665300e-03            nan
       50 -1    0    0    0    0 -4.9354610570e-03 +2.9537332459e-02 +1.5030513158e+01 1.5030543820e+01 4.9935713700e-03 0.0000e+00 0.0000e+00
       11 -1    0    0    0    0 +2.6202404505e-19 -1.5681394791e-18 -7.9797121511e-16 5.1100000000e-04 5.1099893000e-04 0.0000e+00 1.0000e+00
       50  1    1    2    0    0 +1.0102263282e-02 +2.8936445310e-02 +1.4808066560e+01 1.4808099120e+01 4.9935713700e-03 0.0000e+00 0.0000e+00
       11  1    1    2    0    0 -1.5037724339e-02 +6.0088714867e-04 +2.2244659768e-01 2.2295569999e-01 5.1099893000e-04 0.0000e+00 1.0000e+00
<vert_displacement>
199.85389143898124
</vert_displacement>
</event>
<event>
 4   1200 +8.5212000e+10 3.76997500e-02 7.81665300e-03            nan
       50 -1    0    0    0    0 +5.5613369749e-02 -6.8350094810e-03 +2.5021826077e+01 2.5021889312e+01 4.9935713700e-03 0.0000e+00 0.0000e+00
       11 -1    0    0    0    0 +3.0844615704e-18 -3.7908733409e-19 +1.3877753013e-15 5.1100000000e-04 5.1099893000e-04 0.0000e+00 1.0000e+00
       50  1    1    2    0    0 +1.6704693963e-02 -1.7525670763e-02 +2.3571438968e+01 2.3571451931e+01 4.9935713700e-03 0.0000e+00 0.0000e+00
       11  1    1    2    0    0 +3.8908675786e-02 +1.0690661282e-02 +1.4503871096e+00 1.4509483809e+00 5.1099893000e-04 0.0000e+00 1.0000e+00
<vert_displacement>
10.132639928356918
</vert_displacement>
</event>
<event>
 4   1200 +8.5212000e+10 1.12980700e-02 7.81665300e-03            nan
       50 -1    0    0    0    0 +1.6965454883e-02 +1.1735115737e-02 +5.0566901229e+00 5.0567346652e+00 4.9935713700e-03 0.0000e+00 0.0000e+00
       11 -1    0    0    0    0 +3.2126609005e-18 +2.2222184876e-18 +9.5755939089e-16 5.1100000000e-04 5.1099893000e-04 0.0000e+00 1.0000e+00
       50  1    1    2    0    0 +6.5040041518e-03 +1.0904278461e-02 +4.9541246358e+00 4.9541434222e+00 4.9935713700e-03 0.0000e+00 0.0000e+00
       11  1    1    2    0    0 +1.0461450731e-02 +8.3083727670e-04 +1.0256548713e-01 1.0310224301e-01 5.1099893000e-04 0.0000e+00 1.0000e+00
<vert_displacement>
173.50342699487337
</vert_displacement>
</event>
<event>
 4   1200 +8.5212000e+10 1.09821400e-02 7.81665300e-03            nan
       50 -1    0    0    0    0 +1.0088628001e-02 -6.9362462673e-03 +1.4782209325e+01 1.4782215238e+01 4.9935713700e-03 0.0000e+00 0.0000e+00
       11 -1    0    0    0    0 -4.4041875760e-19 +3.0280162606e-19 -6.4531691173e-16 5.1100000000e-04 5.1099893000e-04 0.0000e+00 1.0000e+00
       50  1    1    2    0    0 +1.4100762237e-02 +1.9992157751e-03 +1.4687993782e+01 1.4688001535e+01 4.9935713700e-03 0.0000e+00 0.0000e+00
       11  1    1    2    0    0 -4.0121342358e-03 -8.9354620424e-03 +9.4215542985e-02 9.4724703024e-02 5.1099893000e-04 0.0000e+00 1.0000e+00
<vert_displacement>
428.13306829855054
</vert_displacement>
</event>
<event>
 4   1200 +8.5212000e+10 5.69205600e-03 7.81665300e-03            nan
       50 -1    0    0    0    0 -1.9881799263e-02 -1.9898616492e-02 +2.1477848846e+01 2.1477867846e+01 4.9935713700e-03 0.0000e+00 0.0000e+00
       11 -1    0    0    0    0 -1.8242027989e-18 -1.8257458201e-18 +1.9706441786e-15 5.1100000000e-04 5.1099893000e-04 0.0000e+00 1.0000e+00
       50  1    1    2    0    0 -2.2501321079e-02 -1.9139268208e-02 +2.1470541375e+01 2.1470562277e+01 4.9935713700e-03 0.0000e+00 0.0000e+00
       11  1    1    2    0    0 +2.6195218159e-03 -7.5934828412e-04 +7.3074708675e-03 7.8165692440e-03 5.1099893000e-04 0.0000e+00 1.0000e+00
<vert_displacement>
349.60645617984437
</vert_displacement>
</event>
<event>
 4   1200 +8.5212000e+10 1.01113500e-02 7.81665300e-03            nan
       50 -1    0    0    0    0 +5.1407823424e-03 -1.5712461740e-03 +1.9099441808e+01 1.9099443217e+01 4.9935713700e-03 0.0000e+00 0.0000e+00
       11 -1    0    0    0    0 -4.8185733848e-19 +1.4727651339e-19 -1.7902345563e-15 5.1100000000e-04 5.1099893000e-04 0.0000e+00 1.0000e+00
       50  1    1    2    0    0 -2.1779372076e-03 +3.3379427873e-03 +1.9023500163e+01 1.9023501236e+01 4.9935713700e-03 0.0000e+00 0.0000e+00
       11  1    1    2    0    0 +7.3187195500e-03 -4.9091889613e-03 +7.5941644890e-02 7.6452981241e-02 5.1099893000e-04 0.0000e+00 1.0000e+00
<vert_displacement>
239.20514636940604
</vert_displacement>
</event>
<event>
 4   1200 +8.5212000e+10 1.16735900e-02 7.81665300e-03            nan
       50 -1    0    0    0    0 +3.3303914209e-02 -3.8053598688e-02 +1.7149414441e+01 1.7149489725e+01 4.9935713700e-03 0.0000e+00 0.0000e+00
       11 -1    0    0    0    0 +1.9134745343e-18 -2.1863673913e-18 +9.8531865068e-16 5.1100000000e-04 5.1099893000e-04 0.0000e+00 1.0000e+00
       50  1    1    2    0    0 +4.3162505731e-02 -4.0956847340e-02 +1.7039742828e+01 1.7039847447e+01 4.9935713700e-03 0.0000e+00 0.0000e+00
       11  1    1    2    0    0 -9.8585915218e-03 +2.9032486514e-03 +1.0967161303e-01 1.1015327732e-01 5.1099893000e-04 0.0000e+00 1.0000e+00
<vert_displacement>
386.41576079411186
</vert_displacement>
</event>
<event>
 4   1200 +8.5212000e+10 2.40732500e-02 7.81665300e-03            nan
       50 -1    0    0    0    0 +2.0295876685e-02 -7.3171619717e-03 +1.3182679479e+01 1.3182698079e+01 4.9935713700e-03 0.0000e+00 0.0000e+00
       11 -1    0    0    0    0 +1.8161123410e-19 -6.5475309907e-20 +1.1796103839e-16 5.1100000000e-04 5.1099893000e-04 0.0000e+00 1.0000e+00
       50  1    1    2    0    0 +2.1718712329e-02 +1.6435069124e-02 +1.2615579923e+01 1.2615610312e+01 4.9935713700e-03 0.0000e+00 0.0000e+00
       11  1    1    2    0    0 -1.4228356436e-03 -2.3752231096e-02 +5.6709955529e-01 5.6759876645e-01 5.1099893000e-04 0.0000e+00 1.0000e+00
<vert_displacement>
333.97117279250614
</vert_displacement>
</event>
<event>
 4   1200 +8.5212000e+10 1.06343400e-02 7.81665300e-03            nan
       50 -1    0    0    0    0 +3.5068947570e-02 +4.8737918282e-02 +2.1646468470e+01 2.1646552321e+01 4.9935713700e-03 0.0000e+00 0.0000e+00
       11 -1    0    0    0    0 -4.0469399181e-19 -5.6243326557e-19 -2.4979921955e-16 5.1100000000e-04 5.1099893000e-04 0.0000e+00 1.0000e+00
       50  1    1    2    0    0 +3.2639151660e-02 +3.9437368667e-02 +2.1559888223e+01 2.1559949576e+01 4.9935713700e-03 0.0000e+00 0.0000e+00
       11  1    1    2    0    0 +2.4297959104e-03 +9.3005496151e-03 +8.6580246896e-02 8.7113744058e-02 5.1099893000e-04 0.0000e+00 1.0000e+00
<vert_displacement>
405.68406485255548
</vert_displacement>
</event>
<event>
 4   1200 +8.5212000e+10 2.67442300e-02 7.81665300e-03            nan
       50 -1    0    0    0    0 -1.1616763949e-02 +2.7967672472e-02 +1.5098208524e+01 1.5098239722e+01 4.9935713700e-03 0.0000e+00 0.0000e+00
       11 -1    0    0    0    0 +8.2218555007e-19 -1.9794338834e-18 -1.0685875116e-15 5.1100000000e-04 5.1099893000e-04 0.0000e+00 1.0000e+00
       50  1    1    2    0    0 -3.7132122505e-02 +2.3314573094e-02 +1.4389385895e+01 1.4389453559e+01 4.9935713700e-03 0.0000e+00 0.0000e+00
       11  1    1    2    0    0 +2.5515358556e-02 +4.6530993780e-03 +7.0882262914e-01 7.0929716308e-01 5.1099893000e-04 0.0000e+00 1.0000e+00
<vert_displacement>
110.39504264765766
</vert_displacement>
</event>
<event>
 4   1200 +8.5212000e+10 2.54512400e-02 7.81665300e-03            nan
       50 -1    0    0    0    0 +1.3264396011e-02 +5.2170527232e-03 +1.5230442955e+01 1.5230450443e+01 4.9935713700e-03 0.0000e+00 0.0000e+00
       11 -1    0    0    0    0 -1.0212961779e-18 -4.0168855043e-19 -1.1726725562e-15 5.1100000000e-04 5.1099893000e-04 0.0000e+00 1.0000e+00
       50  1    1    2    0    0 -1.0782137454e-02 +1.3421033093e-02 +1.4594413417e+01 1.4594424425e+01 4.9935713700e-03 0.0000e+00 0.0000e+00
       11  1    1    2    0    0 +2.4046533464e-02 -8.2039803700e-03 +6.3602953806e-01 6.3653701815e-01 5.1099893000e-04 0.0000e+00 1.0000e+00
<vert_displacement>
78.960423476561928
</vert_displacement>
</event>
<event>
 4   1200 +8.5212000e+10 5.57571800e-02 7.81665300e-03            nan
       50 -1    0    0    0    0 +8.3298439181e-03 -3.2047023922e-02 +1.2772546318e+01 1.2772590214e+01 4.9935713700e-03 0.0000e+00 0.0000e+00
       11 -1    0    0    0    0 -2.5794256905e-19 +9.9237053684e-19 -3.9551562346e-16 5.1100000000e-04 5.1099893000e-04 0.0000e+00 1.0000e+00
       50  1    1    2    0    0 -4.1300513630e-02 +1.0721466540e-02 +7.8682442988e+00 7.8683615806e+00 4.9935713700e-03 0.0000e+00 0.0000e+00
       11  1    1    2    0    0 +4.9630357548e-02 -4.2768490462e-02 +4.9043020191e+00 4.9047396335e+00 5.1099893000e-04 0.0000e+00 1.0000e+00
<vert_displacement>
431.11132411412723
</vert_displacement>
</event>
<event>
 4   1200 +8.5212000e+10 2.18120200e-02 7.81665300e-03            nan
       50 -1    0    0    0    0 -2.4691335018e-02 -4.8175724055e-02 +2.1054004996e+01 2.1054075185e+01 4.9935713700e-03 0.0000e+00 0.0000e+00
       11 -1    0    0    0    0 -3.1899562665e-18 -6.2239831394e-18 +2.7200374190e-15 5.1100000000e-04 5.1099893000e-04 0.0000e+00 1.0000e+00
       50  1    1    2    0    0 -9.6981552130e-03 -3.1600594441e-02 +2.0603261056e+01 2.0603288178e+01 4.9935713700e-03 0.0000e+00 0.0000e+00
       11  1    1    2    0    0 -1.4993179805e-02 -1.6575129613e-02 +4.5074394017e-01 4.5129800695e-01 5.1099893000e-04 0.0000e+00 1.0000e+00
<vert_displacement>
491.86740984330135
</vert_displacement>
</event>
<event>
 4   1200 +8.5212000e+10 9.52160200e-03 7.81665300e-03            nan
       50 -1    0    0    0    0 +3.7830560188e-02 +2.3577397500e-02 +2.0285493909e+01 2.0285543501e+01 4.9935713700e-03 0.0000e+00 0.0000e+00
       11 -1    0    0    0    0 -2.5880721551e-20 -1.6129818236e-20 -1.3877754302e-17 5.1100000000e-04 5.1099893000e-04 0.0000e+00 1.0000e+00
       50  1    1    2    0    0 +3.7272086462e-02 +1.5407161360e-02 +2.0220986914e+01 2.0221027751e+01 4.9935713700e-03 0.0000e+00 0.0000e+00
       11  1    1    2    0    0 +5.5847372653e-04 +8.1702361395e-03 +6.4506994550e-02 6.5026749244e-02 5.1099893000e-04 0.0000e+00 1.0000e+00
<vert_displacement>
409.59865399675351
</vert_displacement>
</event>
<event>
 4   1200 +8.5212000e+10 3.94898100e-02 7.81665300e-03            nan
       50 -1    0    0    0    0 -2.0876795592e-02 +2.2493366697e-02 +1.4164235145e+01 1.4164269271e+01 4.9935713700e-03 0.0000e+00 0.0000e+00
       11 -1    0    0    0    0 -1.0840911624e-18 +1.1680365381e-18 +7.3552102745e-16 5.1100000000e-04 5.1099893000e-04 0.0000e+00 1.0000e+00
       50  1    1    2    0    0 -2.5711487830e-02 +5.8258010385e-02 +1.2456376592e+01 1.2456540363e+01 4.9935713700e-03 0.0000e+00 0.0000e+00
       11  1    1    2    0    0 +4.8346922383e-03 -3.5764643688e-02 +1.7078585526e+00 1.7082399073e+00 5.1099893000e-04 0.0000e+00 1.0000e+00
<vert_displacement>
426.68582809989442
</vert_displacement>
</event>
<event>
 4   1200 +8.5212000e+10 8.39934700e-03 7.81665300e-03            nan
       50 -1    0    0    0    0 +6.4967098837e-02 -3.0952105888e-02 +2.6003858113e+01 2.6003958169e+01 4.9935713700e-03 0.0000e+00 0.0000e+00
       11 -1    0    0    0    0 -1.9069396767e-18 +9.0851830928e-19 -7.6327540662e-16 5.1100000000e-04 5.1099893000e-04 0.0000e+00 1.0000e+00
       50  1    1    2    0    0 +7.0807732866e-02 -2.7707827169e-02 +2.5959138011e+01 2.5959249848e+01 4.9935713700e-03 0.0000e+00 0.0000e+00
       11  1    1    2    0    0 -5.8406340290e-03 -3.2442787188e-03 +4.4720102055e-02 4.5219321070e-02 5.1099893000e-04 0.0000e+00 1.0000e+00
<vert_displacement>
462.31738933591600
</vert_displacement>
</event>
<event>
 4   1200 +8.5212000e+10 1.44882100e-02 7.81665300e-03            nan
       50 -1    0    0    0    0 +3.4839432247e-02 -1.7470062521e-02 +1.7474168045e+01 1.7474212222e+01 4.9935713700e-03 0.0000e+00 0.0000e+00
       11 -1    0    0    0    0 +1.9368311610e-19 -9.7121449158e-20 +9.7144273026e-17 5.1100000000e-04 5.1099893000e-04 0.0000e+00 1.0000e+00
       50  1    1    2    0    0 +2.0936727497e-02 -1.8588616670e-02 +1.7291281044e+01 1.7291304432e+01 4.9935713700e-03 0.0000e+00 0.0000e+00
       11  1    1    2    0    0 +1.3902704750e-02 +1.1185541487e-03 +1.8288700105e-01 1.8341879030e-01 5.1099893000e-04 0.0000e+00 1.0000e+00
<vert_displacement>
319.15010918267933
</vert_displacement>
</event>
<event>
 4   1200 +8.5212000e+10 3.08795000e-02 7.81665300e-03            nan
       50 -1    0    0    0    0 +6.0675409616e-02 -9.3831274203e-03 +2.6581519170e+01 2.6581590544e+01 4.9935713700e-03 0.0000e+00 0.0000e+00
       11 -1    0    0    0    0 -3.1677580515e-20 +4.8987683184e-21 -1.3877750789e-17 5.1100000000e-04 5.1099893000e-04 0.0000e+00 1.0000e+00
       50  1    1    2    0    0 +5.5386821407e-02 +2.1260442083e-02 +2.5639487437e+01 2.5639556562e+01 4.9935713700e-03 0.0000e+00 0.0000e+00
       11  1    1    2    0    0 +5.2885882094e-03 -3.0643569504e-02 +9.4203173265e-01 9.4254498245e-01 5.1099893000e-04 0.0000e+00 1.0000e+00
<vert_displacement>
121.71855999334269
</vert_displacement>
</event>
<event>
 4   1200 +8.5212000e+10 3.54427500e-02 7.81665300e-03            nan
       50 -1    0    0    0    0 -9.5173169040e-03 -2.1669450783e-02 +9.1935371929e+00 9.1935690130e+00 4.9935713700e-03 0.0000e+00 0.0000e+00
       11 -1    0    0    0    0 -1.4653820542e-18 -3.3364470913e-18 +1.4155296659e-15 5.1100000000e-04 5.1099893000e-04 0.0000e+00 1.0000e+00
       50  1    1    2    0    0 +2.4755829076e-02 -3.0783172533e-02 +7.7667035546e+00 7.7668056172e+00 4.9935713700e-03 0.0000e+00 0.0000e+00
       11  1    1    2    0    0 -3.4273145980e-02 +9.1137217505e-03 +1.4268336382e+00 1.4272743958e+00 5.1099893000e-04 0.0000e+00 1.0000e+00
<vert_displacement>
108.87150034465381
</vert_displacement>
</event>
<event>
 4   1200 +8.5212000e+10 8.79790500e-03 7.81665300e-03            nan
       50 -1    0    0    0    0 +2.7504788427e-02 -1.6095237117e-02 +1.2155469830e+01 1.2155512630e+01 4.9935713700e-03 0.0000e+00 0.0000e+00
       11 -1    0    0    0    0 -6.4373803532e-19 +3.7670227304e-19 -2.8449367235e-16 5.1100000000e-04 5.1099893000e-04 0.0000e+00 1.0000e+00
       50  1    1    2    0    0 +2.0146641032e-02 -1.5859532674e-02 +1.2103927385e+01 1.2103955572e+01 4.9935713700e-03 0.0000e+00 0.0000e+00
       11  1    1    2    0    0 +7.3581473953e-03 -2.3570444303e-04 +5.1542445777e-02 5.2068058599e-02 5.1099893000e-04 0.0000e+00 1.0000e+00
<vert_displacement>
19.948929187698024
</vert_displacement>
</event>
<event>
 4   1200 +8.5212000e+10 5.32241500e-03 7.81665300e-03            nan
       50 -1    0    0    0    0 +8.7830795429e-03 -1.0374537194e-02 +2.5091205236e+01 2.5091209415e+01 4.9935713700e-03 0.0000e+00 0.0000e+00
       11 -1    0    0    0    0 -4.9064439955e-19 +5.7954713349e-19 -1.4016563629e-15 5.1100000000e-04 5.1099893000e-04 0.0000e+00 1.0000e+00
       50  1    1    2    0    0 +1.0248025446e-02 -1.1488004391e-02 +2.5087884440e+01 2.5087889660e+01 4.9935713700e-03 0.0000e+00 0.0000e+00
       11  1    1    2    0    0 -1.4649459036e-03 +1.1134671970e-03 +3.3207964767e-03 3.8307551273e-03 5.1099893000e-04 0.0000e+00 1.0000e+00
<vert_displacement>
17.230015913852718
</vert_displacement>
</event>
<event>
 4   1200 +8.5212000e+10 8.29516400e-03 7.81665300e-03            nan
       50 -1    0    0    0    0 +4.0191560560e-02 -2.1343158782e-02 +1.4377540583e+01 1.4377613468e+01 4.9935713700e-03 0.0000e+00 0.0000e+00
       11 -1    0    0    0    0 -2.7931922671e-18 +1.4832851782e-18 -9.9919571712e-16 5.1100000000e-04 5.1099893000e-04 0.0000e+00 1.0000e+00
       50  1    1    2    0    0 +4.6330636655e-02 -2.3445539810e-02 +1.4334459843e+01 1.4334554760e+01 4.9935713700e-03 0.0000e+00 0.0000e+00
       11  1    1    2    0    0 -6.1390760952e-03 +2.1023810278e-03 +4.3080739304e-02 4.3569708287e-02 5.1099893000e-04 0.0000e+00 1.0000e+00
<vert_displacement>
287.27734936282911
</vert_displacement>
</event>
<event>
 4   1200 +8.5212000e+10 1.18817600e-02 7.81665300e-03            nan
       50 -1    0    0    0    0 -2.7727264490e-03 -4.1554449667e-02 +1.6255476625e+01 1.6255530742e+01 4.9935713700e-03 0.0000e+00 0.0000e+00
       11 -1    0    0    0    0 -4.6632893210e-19 -6.9888041584e-18 +2.7339152255e-15 5.1100000000e-04 5.1099893000e-04 0.0000e+00 1.0000e+00
       50  1    1    2    0    0 -9.5124681638e-03 -3.2862090106e-02 +1.6140947141e+01 1.6140984169e+01 4.9935713700e-03 0.0000e+00 0.0000e+00
       11  1    1    2    0    0 +6.7397417148e-03 -8.6923595609e-03 +1.1452948425e-01 1.1505757305e-01 5.1099893000e-04 0.0000e+00 1.0000e+00
<vert_displacement>
367.43707846726909
</vert_displacement>
</event>
<event>
 4   1200 +8.5212000e+10 9.06151900e-03 7.81665300e-03            nan
       50 -1    0    0    0    0 -1.1520233254e-02 -1.4414758164e-02 +5.8815900963e+00 5.8816211624e+00 4.9935713700e-03 0.0000e+00 0.0000e+00
       11 -1    0    0    0    0 +3.1259531457e-19 +3.9113668652e-19 -1.5959377435e-16 5.1100000000e-04 5.1099893000e-04 0.0000e+00 1.0000e+00
       50  1    1    2    0    0 -1.4784955275e-02 -2.1042515617e-02 +5.8250728480e+00 5.8251317584e+00 4.9935713700e-03 0.0000e+00 0.0000e+00
       11  1    1    2    0    0 +3.2647220216e-03 +6.6277574534e-03 +5.6517248337e-02 5.7000404018e-02 5.1099893000e-04 0.0000e+00 1.0000e+00
<vert_displacement>
62.008209224890201
</vert_displacement>
</event>
<event>
 4   1200 +8.5212000e+10 1.03887300e-02 7.81665300e-03            nan
       50 -1    0    0    0    0 +3.1231191416e-02 -8.7809075582e-02 +3.6078529523e+01 3.6078650242e+01 4.9935713700e-03 0.0000e+00 0.0000e+00
       11 -1    0    0    0    0 -1.2373590591e-18 +3.4789372487e-18 -1.4294073751e-15 5.1100000000e-04 5.1099893000e-04 0.0000e+00 1.0000e+00
       50  1    1    2    0    0 +2.2392445477e-02 -8.5139805603e-02 +3.5997155101e+01 3.5997263097e+01 4.9935713700e-03 0.0000e+00 0.0000e+00
       11  1    1    2    0    0 +8.8387459395e-03 -2.6692699786e-03 +8.1374421876e-02 8.1898144592e-02 5.1099893000e-04 0.0000e+00 1.0000e+00
<vert_displacement>
211.44059810483802
</vert_displacement>
</event>
<event>
 4   1200 +8.5212000e+10 1.73561200e-02 7.81665300e-03            nan
       50 -1    0    0    0    0 +2.7111962478e-02 -1.2551686794e-02 +1.2005957844e+01 1.2005996056e+01 4.9935713700e-03 0.0000e+00 0.0000e+00
       11 -1    0    0    0    0 -2.5227773269e-18 +1.1679387239e-18 -1.1171584595e-15 5.1100000000e-04 5.1099893000e-04 0.0000e+00 1.0000e+00
       50  1    1    2    0    0 +2.7718248034e-02 -2.8838928268e-02 +1.1729183088e+01 1.1729252357e+01 4.9935713700e-03 0.0000e+00 0.0000e+00
       11  1    1    2    0    0 -6.0628555517e-04 +1.6287241474e-02 +2.7677475582e-01 2.7725469950e-01 5.1099893000e-04 0.0000e+00 1.0000e+00
<vert_displacement>
437.91349219612255
</vert_displacement>
</event>
<event>
 4   1200 +8.5212000e+10 9.17341400e-03 7.81665300e-03            nan
       50 -1    0    0    0    0 -2.9033174868e-02 -2.0241480229e-03 +1.4966674833e+01 1.4966703963e+01 4.9935713700e-03 0.0000e+00 0.0000e+00
       11 -1    0    0    0    0 -1.0633732326e-18 -7.4136736205e-20 +5.4817158200e-16 5.1100000000e-04 5.1099893000e-04 0.0000e+00 1.0000e+00
       50  1    1    2    0    0 -3.3876888530e-02 +3.8699972501e-03 +1.4908496626e+01 1.4908536454e+01 4.9935713700e-03 0.0000e+00 0.0000e+00
       11  1    1    2    0    0 +4.8437136616e-03 -5.8941452730e-03 +5.8178206674e-02 5.8678508521e-02 5.1099893000e-04 0.0000e+00 1.0000e+00
<vert_displacement>
285.37160467994556
</vert_displacement>
</event>
<event>
 4   1200 +8.5212000e+10 7.01781000e-03 7.81665300e-03            nan
       50 -1    0    0    0    0 -3.0091678919e-02 +1.0627498970e-03 +1.2218487918e+01 1.2218526040e+01 4.9935713700e-03 0.0000e+00 0.0000e+00
       11 -1    0    0    0    0 -2.4608229929e-18 +8.6909055130e-20 +9.9919768813e-16 5.1100000000e-04 5.1099893000e-04 0.0000e+00 1.0000e+00
       50  1    1    2    0    0 -3.1954995133e-02 +5.6015684812e-03 +1.2194644754e+01 1.2194688930e+01 4.9935713700e-03 0.0000e+00 0.0000e+00
       11  1    1    2    0    0 +1.8633162136e-03 -4.5388185842e-03 +2.3843164865e-02 2.4348109827e-02 5.1099893000e-04 0.0000e+00 1.0000e+00
<vert_displacement>
89.609977008649651
</vert_displacement>
</event>
<event>
 4   1200 +8.5212000e+10 1.44037700e-02 7.81665300e-03            nan
       50 -1    0    0    0    0 +2.2132074365e-02 +1.9278980919e-02 +2.0534240883e+01 2.0534262468e+01 4.9935713700e-03 0.0000e+00 0.0000e+00
       11 -1    0    0    0    0 +7.7779762239e-19 +6.7753005316e-19 +7.2164422879e-16 5.1100000000e-04 5.1099893000e-04 0.0000e+00 1.0000e+00
       50  1    1    2    0    0 +1.1721513143e-02 +2.7950570972e-02 +2.0354052610e+01 2.0354075788e+01 4.9935713700e-03 0.0000e+00 0.0000e+00
       11  1    1    2    0    0 +1.0410561222e-02 -8.6715900532e-03 +1.8018827343e-01 1.8069767918e-01 5.1099893000e-04 0.0000e+00 1.0000e+00
<vert_displacement>
215.98754536264653
</vert_displacement>
</event>
<event>
 4   1200 +8.5212000e+10 1.08919100e-02 7.81665300e-03            nan
       50 -1    0    0    0    0 -2.3115807760e-02 -1.4390303094e-04 +8.0845331104e+00 8.0845677008e+00 4.9935713700e-03 0.0000e+00 0.0000e+00
       11 -1    0    0    0    0 +2.1030445229e-18 +1.3092100618e-20 -7.3551974712e-16 5.1100000000e-04 5.1099893000e-04 0.0000e+00 1.0000e+00
       50  1    1    2    0    0 -2.7114379806e-02 -8.8323579375e-03 +7.9917670621e+00 7.9918194994e+00 4.9935713700e-03 0.0000e+00 0.0000e+00
       11  1    1    2    0    0 +3.9985720467e-03 +8.6884549066e-03 +9.2766048269e-02 9.3259201468e-02 5.1099893000e-04 0.0000e+00 1.0000e+00
<vert_displacement>
32.659939819290983
</vert_displacement>
</event>
<event>
 4   1200 +8.5212000e+10 1.30011800e-02 7.81665300e-03            nan
       50 -1    0    0    0    0 -1.4902023995e-02 -1.2145719057e-03 +4.8912934266e+00 4.8913188269e+00 4.9935713700e-03 0.0000e+00 0.0000e+00
       11 -1    0    0    0    0 +9.5131046351e-19 +7.7535438338e-20 -3.1224876690e-16 5.1100000000e-04 5.1099893000e-04 0.0000e+00 1.0000e+00
       50  1    1    2    0    0 -1.9083134657e-02 -1.2256106471e-02 +4.7459290498e+00 4.7459858680e+00 4.9935713700e-03 0.0000e+00 0.0000e+00
       11  1    1    2    0    0 +4.1811106616e-03 +1.1041534565e-02 +1.4536437683e-01 1.4584395889e-01 5.1099893000e-04 0.0000e+00 1.0000e+00
<vert_displacement>
35.357670267513946
</vert_displacement>
</event>
<event>
 4   1200 +8.5212000e+10 1.12329300e-02 7.81665300e-03            nan
       50 -1    0    0    0    0 -4.8750078746e-02 +2.6509011352e-02 +2.1696522086e+01 2.1696593624e+01 4.9935713700e-03 0.0000e+00 0.0000e+00
       11 -1    0    0    0    0 -3.3988384220e-18 +1.8481989902e-18 +1.5126739235e-15 5.1100000000e-04 5.1099893000e-04 0.0000e+00 1.0000e+00
       50  1    1    2    0    0 -5.6428398591e-02 +3.2616519111e-02 +2.1596974065e+01 2.1597072989e+01 4.9935713700e-03 0.0000e+00 0.0000e+00
       11  1    1    2    0    0 +7.6783198450e-03 -6.1075077589e-03 +9.9548021536e-02 1.0003163479e-01 5.1099893000e-04 0.0000e+00 1.0000e+00
<vert_displacement>
373.62024198103410
</vert_displacement>
</event>
<event>
 4   1200 +8.5212000e+10 3.69369800e-02 7.81665300e-03            nan
       50 -1    0    0    0    0 +1.1686580868e-02 -4.8684443954e-02 +2.7982767578e+01 2.7982812815e+01 4.9935713700e-03 0.0000e+00 0.0000e+00
       11 -1    0    0    0    0 -1.6170392229e-18 +6.7363291545e-18 -3.8718966008e-15 5.1100000000e-04 5.1099893000e-04 0.0000e+00 1.0000e+00
       50  1    1    2    0    0 -9.6532062433e-03 -1.6148742543e-02 +2.6604261432e+01 2.6604268554e+01 4.9935713700e-03 0.0000e+00 0.0000e+00
       11  1    1    2    0    0 +2.1339787112e-02 -3.2535701411e-02 +1.3785061455e+00 1.3790552610e+00 5.1099893000e-04 0.0000e+00 1.0000e+00
<vert_displacement>
462.79379297164007
</vert_displacement>
</event>
<event>
 4   1200 +8.5212000e+10 1.38766600e-02 7.81665300e-03            nan
       50 -1    0    0    0    0 -3.1957771069e-04 -9.3632918814e-03 +6.8005957497e+00 6.8006040364e+00 4.9935713700e-03 0.0000e+00 0.0000e+00
       11 -1    0    0    0    0 +3.3259791965e-20 +9.7447703538e-19 -7.0776650657e-16 5.1100000000e-04 5.1099893000e-04 0.0000e+00 1.0000e+00
       50  1    1    2    0    0 -4.3591399597e-03 -2.1429816440e-02 +6.6323737743e+00 6.6324117075e+00 4.9935713700e-03 0.0000e+00 0.0000e+00
       11  1    1    2    0    0 +4.0395622491e-03 +1.2066524559e-02 +1.6822197534e-01 1.6870332891e-01 5.1099893000e-04 0.0000e+00 1.0000e+00
<vert_displacement>
294.97874952700107
</vert_displacement>
</event>
<event>
 4   1200 +8.5212000e+10 1.85630200e-02 7.81665300e-03            nan
       50 -1    0    0    0    0 -2.0285219180e-03 -1.7115094403e-02 +1.6077515485e+01 1.6077525498e+01 4.9935713700e-03 0.0000e+00 0.0000e+00
       11 -1    0    0    0    0 -6.8288153298e-20 -5.7616246585e-19 +5.4123341352e-16 5.1100000000e-04 5.1099893000e-04 0.0000e+00 1.0000e+00
       50  1    1    2    0    0 -1.5207078813e-02 -4.7374181939e-03 +1.5758404195e+01 1.5758413036e+01 4.9935713700e-03 0.0000e+00 0.0000e+00
       11  1    1    2    0    0 +1.3178556895e-02 -1.2377676209e-02 +3.1911128929e-01 3.1962346175e-01 5.1099893000e-04 0.0000e+00 1.0000e+00
<vert_displacement>
16.058651644133707
</vert_displacement>
</event>
<event>
 4   1200 +8.5212000e+10 1.51127400e-02 7.81665300e-03            nan
       50 -1    0    0    0    0 -2.2257888043e-02 -3.6691985537e-02 +1.5280954009e+01 1.5281015086e+01 4.9935713700e-03 0.0000e+00 0.0000e+00
       11 -1    0    0    0    0 -2.1325757908e-18 -3.5155374994e-18 +1.4641008399e-15 5.1100000000e-04 5.1099893000e-04 0.0000e+00 -1.0000e+00
       50  1    1    2    0    0 -1.5060237334e-02 -4.8689396316e-02 +1.5079180785e+01 1.5079267739e+01 4.9935713700e-03 0.0000e+00 0.0000e+00
       11  1    1    2    0    0 -7.1976507096e-03 +1.1997410779e-02 +2.0177322386e-01 2.0225834724e-01 5.1099893000e-04 0.0000e+00 -1.0000e+00
<vert_displacement>
85.349896366807457
</vert_displacement>
</event>
<event>
 4   1200 +8.5212000e+10 9.99858700e-03 7.81665300e-03            nan
       50 -1    0    0    0    0 -3.2441159346e-02 +2.4458362800e-02 +3.5851914837e+01 3.5851938205e+01 4.9935713700e-03 0.0000e+00 0.0000e+00
       11 -1    0    0    0    0 +4.8974338765e-19 -3.6923222522e-19 -5.4123337698e-16 5.1100000000e-04 5.1099893000e-04 0.0000e+00 1.0000e+00
       50  1    1    2    0    0 -3.3378930326e-02 +3.3012079225e-02 +3.5778335244e+01 3.5778366392e+01 4.9935713700e-03 0.0000e+00 0.0000e+00
       11  1    1    2    0    0 +9.3777097943e-04 -8.5537164252e-03 +7.3579593756e-02 7.4082813232e-02 5.1099893000e-04 0.0000e+00 1.0000e+00
<vert_displacement>
487.76753273513594
</vert_displacement>
</event>
<event>
 4   1200 +8.5212000e+10 1.11363800e-02 7.81665300e-03            nan
       50 -1    0    0    0    0 +3.4009115492e-02 -1.7792199794e-02 +1.0811412555e+01 1.0811481839e+01 4.9935713700e-03 0.0000e+00 0.0000e+00
       11 -1    0    0    0    0 -9.6040206193e-19 +5.0244368667e-19 -3.0530940779e-16 5.1100000000e-04 5.1099893000e-04 0.0000e+00 1.0000e+00
       50  1    1    2    0    0 +4.2971907399e-02 -2.1255887379e-02 +1.0713535752e+01 1.0713644181e+01 4.9935713700e-03 0.0000e+00 0.0000e+00
       11  1    1    2    0    0 -8.9627919073e-03 +3.4636875854e-03 +9.7876803427e-02 9.8348658046e-02 5.1099893000e-04 0.0000e+00 1.0000e+00
<vert_displacement>
37.132821283636510
</vert_displacement>
</event>
<event>
 4   1200 +8.5212000e+10 1.97072900e-02 7.81665300e-03            nan
       50 -1    0    0    0    0 +1.2299144414e-02 -2.7198977760e-03 +4.1152345470e+00 4.1152568546e+00 4.9935713700e-03 0.0000e+00 0.0000e+00
       11 -1    0    0    0    0 -2.0945459611e-18 +4.6319895999e-19 -7.0082500126e-16 5.1100000000e-04 5.1099893000e-04 0.0000e+00 1.0000e+00
       50  1    1    2    0    0 +2.9477739859e-02 +2.6923670734e-03 +3.7216730411e+00 3.7217941032e+00 4.9935713700e-03 0.0000e+00 0.0000e+00
       11  1    1    2    0    0 -1.7178595445e-02 -5.4122648494e-03 +3.9356150586e-01 3.9397375137e-01 5.1099893000e-04 0.0000e+00 1.0000e+00
<vert_displacement>
308.45905796971704
</vert_displacement>
</event>
<event>
 4   1200 +8.5212000e+10 2.90819000e-02 7.81665300e-03            nan
       50 -1    0    0    0    0 -8.2308539832e-03 -1.6997974564e-03 +3.1832127512e+01 3.1832129014e+01 4.9935713700e-03 0.0000e+00 0.0000e+00
       11 -1    0    0    0    0 -6.6026348850e-19 -1.3635452659e-19 +2.5535128676e-15 5.1100000000e-04 5.1099893000e-04 0.0000e+00 1.0000e+00
       50  1    1    2    0    0 -1.1143257281e-02 -3.0134736947e-02 +3.1007586581e+01 3.1007603628e+01 4.9935713700e-03 0.0000e+00 0.0000e+00
       11  1    1    2    0    0 +2.9124032982e-03 +2.8434939491e-02 +8.2454093195e-01 8.2503638554e-01 5.1099893000e-04 0.0000e+00 1.0000e+00
<vert_displacement>
49.449862773232276
</vert_displacement>
</event>
<event>
 4   1200 +8.5212000e+10 1.07077500e-02 7.81665300e-03            nan
       50 -1    0    0    0    0 -2.3203766740e-02 +2.0491899271e-02 +1.4312003319e+01 1.4312037670e+01 4.9935713700e-03 0.0000e+00 0.0000e+00
       11 -1    0    0    0    0 -2.0587252147e-18 +1.8181181615e-18 +1.2698146139e-15 5.1100000000e-04 5.1099893000e-04 0.0000e+00 1.0000e+00
       50  1    1    2    0    0 -2.8501416357e-02 +1.2611899490e-02 +1.4223667742e+01 1.4223702765e+01 4.9935713700e-03 0.0000e+00 0.0000e+00
       11  1    1    2    0    0 +5.2976496165e-03 +7.8799997811e-03 +8.8335577376e-02 8.8845905017e-02 5.1099893000e-04 0.0000e+00 1.0000e+00
<vert_displacement>
216.04072921867538
</vert_displacement>
</event>
<event>
 4   1200 +8.5212000e+10 6.65081500e-02 7.81665300e-03            nan
       50 -1    0    0    0    0 -4.1623730853e-02 +5.0898612584e-02 +2.2535478510e+01 2.2535574983e+01 4.9935713700e-03 0.0000e+00 0.0000e+00
       11 -1    0    0    0    0 -2.3838315500e-18 +2.9150130477e-18 +1.2906287727e-15 5.1100000000e-04 5.1099893000e-04 0.0000e+00 1.0000e+00
       50  1    1    2    0    0 +2.1048353902e-02 +7.9012900255e-02 +1.6739291226e+01 1.6739491682e+01 4.9935713700e-03 0.0000e+00 0.0000e+00
       11  1    1    2    0    0 -6.2672084755e-02 -2.8114287670e-02 +5.7961872837e+00 5.7965943012e+00 5.1099893000e-04 0.0000e+00 1.0000e+00
<vert_displacement>
401.01803163961790
</vert_displacement>
</event>
<event>
 4   1200 +8.5212000e+10 4.30504500e-02 7.81665300e-03            nan
       50 -1    0    0    0    0 -4.1982473606e-02 -4.4025321141e-02 +2.5859978248e+01 2.5860050284e+01 4.9935713700e-03 0.0000e+00 0.0000e+00
       11 -1    0    0    0    0 +2.2529881606e-20 +2.3626175110e-20 -1.3877749409e-17 5.1100000000e-04 5.1099893000e-04 0.0000e+00 1.0000e+00
       50  1    1    2    0    0 -5.9979668761e-03 -6.8112078519e-02 +2.3926160297e+01 2.3926258520e+01 4.9935713700e-03 0.0000e+00 0.0000e+00
       11  1    1    2    0    0 -3.5984506730e-02 +2.4086757377e-02 +1.9338179505e+00 1.9343027642e+00 5.1099893000e-04 0.0000e+00 1.0000e+00
<vert_displacement>
246.89933428296624
</vert_displacement>
</event>
<event>
 4   1200 +8.5212000e+10 2.13931700e-02 7.81665300e-03            nan
       50 -1    0    0    0    0 -1.6552308241e-02 -1.5351818840e-02 +7.9876187658e+00 7.9876522295e+00 4.9935713700e-03 0.0000e+00 0.0000e+00
       11 -1    0    0    0    0 -1.3084922103e-18 -1.2135911845e-18 +6.3143682327e-16 5.1100000000e-04 5.1099893000e-04 0.0000e+00 1.0000e+00
       50  1    1    2    0    0 +4.9083392819e-03 -1.7838687635e-02 +7.5389280369e+00 7.5389523936e+00 4.9935713700e-03 0.0000e+00 0.0000e+00
       11  1    1    2    0    0 -2.1460647523e-02 +2.4868687950e-03 +4.4869072882e-01 4.4921083597e-01 5.1099893000e-04 0.0000e+00 1.0000e+00
<vert_displacement>
315.11402817753589
</vert_displacement>
</event>
<event>
 4   1200 +8.5212000e+10 2.73254900e-02 7.81665300e-03            nan
       50 -1    0    0    0    0 +7.2416661527e-04 -2.5072253787e-02 +1.6926074432e+01 1.6926093754e+01 4.9935713700e-03 0.0000e+00 0.0000e+00
       11 -1    0    0    0    0 +3.9781103126e-20 -1.3773099898e-18 +9.2981076218e-16 5.1100000000e-04 5.1099893000e-04 0.0000e+00 1.0000e+00
       50  1    1    2    0    0 +2.7323505717e-02 -2.7519470636e-02 +1.6187570515e+01 1.6187617737e+01 4.9935713700e-03 0.0000e+00 0.0000e+00
       11  1    1    2    0    0 -2.6599339101e-02 +2.4472168496e-03 +7.3850391694e-01 7.3898701623e-01 5.1099893000e-04 0.0000e+00 1.0000e+00
<vert_displacement>
412.47031678751404
</vert_displacement>
</event>
<event>
 4   1200 +8.5212000e+10 1.36413900e-02 7.81665300e-03            nan
       50 -1    0    0    0    0 -8.2274910995e-03 +1.1208716580e-02 +6.0458734316e+00 6.0458914822e+00 4.9935713700e-03 0.0000e+00 0.0000e+00
       11 -1    0    0    0    0 -5.4767820984e-19 +7.4612901512e-19 +4.0245478213e-16 5.1100000000e-04 5.1099893000e-04 0.0000e+00 1.0000e+00
       50  1    1    2    0    0 -2.0647318704e-02 +9.7366607414e-03 +5.8838016145e+00 5.8838480171e+00 4.9935713700e-03 0.0000e+00 0.0000e+00
       11  1    1    2    0    0 +1.2419827604e-02 +1.4720558384e-03 +1.6207181714e-01 1.6255446501e-01 5.1099893000e-04 0.0000e+00 1.0000e+00
<vert_displacement>
461.83535399207727
</vert_displacement>
</event>
<event>
 4   1200 +8.5212000e+10 8.53406400e-03 7.81665300e-03            nan
       50 -1    0    0    0    0 +7.2212743677e-03 -1.5841929611e-02 +1.2088668748e+01 1.2088682317e+01 4.9935713700e-03 0.0000e+00 0.0000e+00
       11 -1    0    0    0    0 +9.0361131211e-19 -1.9823297210e-18 +1.5126773023e-15 5.1100000000e-04 5.1099893000e-04 0.0000e+00 1.0000e+00
       50  1    1    2    0    0 +1.2975027144e-02 -1.9583501632e-02 +1.2041611394e+01 1.2041635344e+01 4.9935713700e-03 0.0000e+00 0.0000e+00
       11  1    1    2    0    0 -5.7537527768e-03 +3.7415720205e-03 +4.7057354685e-02 4.7557972855e-02 5.1099893000e-04 0.0000e+00 1.0000e+00
<vert_displacement>
53.731463694715437
</vert_displacement>
</event>
<event>
 4   1200 +8.5212000e+10 1.65884000e-02 7.81665300e-03            nan
       50 -1    0    0    0    0 +8.4110143974e-04 -3.6537416680e-03 +8.4763689771e+00 8.4763712772e+00 4.9935713700e-03 0.0000e+00 0.0000e+00
       11 -1    0    0    0    0 -6.2657075439e-20 +2.7218211325e-19 -6.3143928348e-16 5.1100000000e-04 5.1099893000e-04 0.0000e+00 1.0000e+00
       50  1    1    2    0    0 -9.3617687769e-03 -1.5654896572e-02 +8.2239602645e+00 8.2239820091e+00 4.9935713700e-03 0.0000e+00 0.0000e+00
       11  1    1    2    0    0 +1.0202870217e-02 +1.2001154904e-02 +2.5240871260e-01 2.5290026808e-01 5.1099893000e-04 0.0000e+00 1.0000e+00
<vert_displacement>
99.740187150080857
</vert_displacement>
</event>
<event>
 4   1200 +8.5212000e+10 1.10688100e-02 7.81665300e-03            nan
       50 -1    0    0    0    0 +4.8918342741e-03 -2.7791902421e-02 +2.2391312895e+01 2.2391331233e+01 4.9935713700e-03 0.0000e+00 0.0000e+00
       11 -1    0    0    0    0 +3.9414446036e-19 -2.2392468282e-18 +1.8041109823e-15 5.1100000000e-04 5.1099893000e-04 0.0000e+00 1.0000e+00
       50  1    1    2    0    0 +1.4256096010e-02 -3.0755172718e-02 +2.2295411606e+01 2.2295437936e+01 4.9935713700e-03 0.0000e+00 0.0000e+00
       11  1    1    2    0    0 -9.3642617357e-03 +2.9632702968e-03 +9.5901288287e-02 9.6404297537e-02 5.1099893000e-04 0.0000e+00 1.0000e+00
<vert_displacement>
101.16143362658050
</vert_displacement>
</event>
<event>
 4   1200 +8.5212000e+10 3.48098700e-02 7.81665300e-03            nan
       50 -1    0    0    0    0 -1.7837864878e-02 -7.6990338428e-03 +5.7934100972e+00 5.7934448263e+00 4.9935713700e-03 0.0000e+00 0.0000e+00
       11 -1    0    0    0    0 -1.3246101924e-18 -5.7171745439e-19 +4.3020900293e-16 5.1100000000e-04 5.1099893000e-04 0.0000e+00 1.0000e+00
       50  1    1    2    0    0 -4.0679129209e-02 +1.4784298112e-02 +4.1819318220e+00 4.1821587807e+00 4.9935713700e-03 0.0000e+00 0.0000e+00
       11  1    1    2    0    0 +2.2841264331e-02 -2.2483331955e-02 +1.6114782752e+00 1.6117970456e+00 5.1099893000e-04 0.0000e+00 1.0000e+00
<vert_displacement>
460.33417747765759
</vert_displacement>
</event>
<event>
 4   1200 +8.5212000e+10 3.46502200e-02 7.81665300e-03            nan
       50 -1    0    0    0    0 +8.8746619930e-03 +1.5706425167e-02 +7.9824670975e+00 7.9824890447e+00 4.9935713700e-03 0.0000e+00 0.0000e+00
       11 -1    0    0    0    0 -1.0028758526e-19 -1.7748951502e-19 -9.0205390387e-17 5.1100000000e-04 5.1099893000e-04 0.0000e+00 1.0000e+00
       50  1    1    2    0    0 +1.9203402745e-02 +4.5126370355e-02 +6.5874077574e+00 6.5875922049e+00 4.9935713700e-03 0.0000e+00 0.0000e+00
       11  1    1    2    0    0 -1.0328740752e-02 -2.9419945188e-02 +1.3950593401e+00 1.3954078399e+00 5.1099893000e-04 0.0000e+00 1.0000e+00
<vert_displacement>
153.95966746817112
</vert_displacement>
</event>
<event>
 4   1200 +8.5212000e+10 2.33445100e-02 7.81665300e-03            nan
       50 -1    0    0    0    0 -2.6918541378e-03 +2.3867745762e-02 +1.3006965693e+01 1.3006988829e+01 4.9935713700e-03 0.0000e+00 0.0000e+00
       11 -1    0    0    0    0 +3.3028805778e-20 -2.9285507267e-19 -1.5959428768e-16 5.1100000000e-04 5.1099893000e-04 0.0000e+00 1.0000e+00
       50  1    1    2    0    0 -2.4303473275e-02 +1.5950845111e-02 +1.2476438890e+01 1.2476473757e+01 4.9935713700e-03 0.0000e+00 0.0000e+00
       11  1    1    2    0    0 +2.1611619137e-02 +7.9169006510e-03 +5.3052680320e-01 5.3102607228e-01 5.1099893000e-04 0.0000e+00 1.0000e+00
<vert_displacement>
51.982267914806933
</vert_displacement>
</event>
<event>
 4   1200 +8.5212000e+10 2.61853300e-02 7.81665300e-03            nan
       50 -1    0    0    0    0 +2.2189658995e-02 +1.4302823529e-02 +8.2723150748e+00 8.2723587074e+00 4.9935713700e-03 0.0000e+00 0.0000e+00
       11 -1    0    0    0    0 +1.0981549107e-18 +7.0783944441e-19 +4.0939265556e-16 5.1100000000e-04 5.1099893000e-04 0.0000e+00 1.0000e+00
       50  1    1    2    0    0 -3.2308386036e-03 +2.3442340774e-02 +7.5651795475e+00 7.5652182059e+00 4.9935713700e-03 0.0000e+00 0.0000e+00
       11  1    1    2    0    0 +2.5420497598e-02 -9.1395172455e-03 +7.0713552731e-01 7.0765150150e-01 5.1099893000e-04 0.0000e+00 1.0000e+00
<vert_displacement>
281.63889418729650
</vert_displacement>
</event>
<event>
 4   1200 +8.5212000e+10 4.98612000e-02 7.81665300e-03            nan
       50 -1    0    0    0    0 +1.3539373568e-02 +2.7258795115e-02 +1.4849355529e+01 1.4849387561e+01 4.9935713700e-03 0.0000e+00 0.0000e+00
       11 -1    0    0    0    0 +1.6449535866e-19 +3.3117819348e-19 +1.8041086254e-16 5.1100000000e-04 5.1099893000e-04 0.0000e+00 1.0000e+00
       50  1    1    2    0    0 +1.3527793471e-02 -2.7830124687e-02 +1.1823543403e+01 1.1823584949e+01 4.9935713700e-03 0.0000e+00 0.0000e+00
       11  1    1    2    0    0 +1.1580096637e-05 +5.5088919802e-02 +3.0258121260e+00 3.0263136110e+00 5.1099893000e-04 0.0000e+00 1.0000e+00
<vert_displacement>
150.13557916687856
</vert_displacement>
</event>
<event>
 4   1200 +8.5212000e+10 9.24386700e-03 7.81665300e-03            nan
       50 -1    0    0    0    0 -3.3765098249e-02 +5.0442187143e-02 +2.7617888602e+01 2.7617955759e+01 4.9935713700e-03 0.0000e+00 0.0000e+00
       11 -1    0    0    0    0 +9.6710046869e-19 -1.4447659079e-18 -7.9103199449e-16 5.1100000000e-04 5.1099893000e-04 0.0000e+00 1.0000e+00
       50  1    1    2    0    0 -2.6062647441e-02 +4.8817974568e-02 +2.7558561446e+01 2.7558617461e+01 4.9935713700e-03 0.0000e+00 0.0000e+00
       11  1    1    2    0    0 -7.7024508074e-03 +1.6242125745e-03 +5.9327156210e-02 5.9849297396e-02 5.1099893000e-04 0.0000e+00 1.0000e+00
<vert_displacement>
5.1804123770037069
</vert_displacement>
</event>
<event>
 4   1200 +8.5212000e+10 4.52550400e-02 7.81665300e-03            nan
       50 -1    0    0    0    0 -1.0226776272e-01 -2.6568092672e-02 +3.1110565176e+01 3.1110745010e+01 4.9935713700e-03 0.0000e+00 0.0000e+00
       11 -1    0    0    0    0 -8.6676665053e-18 -2.2517688942e-18 +2.6367644757e-15 5.1100000000e-04 5.1099893000e-04 0.0000e+00 1.0000e+00
       50  1    1    2    0    0 -1.0373399339e-01 -6.8931152860e-02 +2.8985714697e+01 2.8985982710e+01 4.9935713700e-03 0.0000e+00 0.0000e+00
       11  1    1    2    0    0 +1.4662306724e-03 +4.2363060188e-02 +2.1248504795e+00 2.1252733000e+00 5.1099893000e-04 0.0000e+00 1.0000e+00
<vert_displacement>
92.669395626906891
</vert_displacement>
</event>
<event>
 4   1200 +8.5212000e+10 1.70200700e-02 7.81665300e-03            nan
       50 -1    0    0    0    0 -2.0982532806e-02 +1.3647817149e-02 +6.0494599071e+00 6.0495137518e+00 4.9935713700e-03 0.0000e+00 0.0000e+00
       11 -1    0    0    0    0 -1.4199722240e-18 +9.2360257212e-19 +4.0939123592e-16 5.1100000000e-04 5.1099893000e-04 0.0000e+00 1.0000e+00
       50  1    1    2    0    0 -6.4720068074e-03 +2.2014246869e-02 +5.7782051470e+00 5.7782528649e+00 4.9935713700e-03 0.0000e+00 0.0000e+00
       11  1    1    2    0    0 -1.4510525999e-02 -8.3664297200e-03 +2.7125476012e-01 2.7177188692e-01 5.1099893000e-04 0.0000e+00 1.0000e+00
<vert_displacement>
252.51296751949266
</vert_displacement>
</event>
<event>
 4   1200 +8.5212000e+10 9.24915600e-03 7.81665300e-03            nan
       50 -1    0    0    0    0 +1.2127053828e-02 -1.8469116173e-02 +8.5237145294e+00 8.5237446283e+00 4.9935713700e-03 0.0000e+00 0.0000e+00
       11 -1    0    0    0    0 +4.8373919464e-19 -7.3671936398e-19 +3.4000465902e-16 5.1100000000e-04 5.1099893000e-04 0.0000e+00 1.0000e+00
       50  1    1    2    0    0 +1.9405849556e-02 -1.5812656390e-02 +8.4639800299e+00 8.4640185202e+00 4.9935713700e-03 0.0000e+00 0.0000e+00
       11  1    1    2    0    0 -7.2787957278e-03 -2.6564597836e-03 +5.9734499485e-02 6.0237108119e-02 5.1099893000e-04 0.0000e+00 1.0000e+00
<vert_displacement>
182.77858508771621
</vert_displacement>
</event>
<event>
 4   1200 +8.5212000e+10 7.51745600e-03 7.81665300e-03            nan
       50 -1    0    0    0    0 -1.4660916855e-02 +7.7121882911e-03 +6.2157714883e+00 6.2157955686e+00 4.9935713700e-03 0.0000e+00 0.0000e+00
       11 -1    0    0    0    0 -3.9279507814e-19 +2.0662484020e-19 +1.6653286227e-16 5.1100000000e-04 5.1099893000e-04 0.0000e+00 1.0000e+00
       50  1    1    2    0    0 -1.3534868766e-02 +1.3193438605e-02 +6.1847122586e+00 6.1847431569e+00 4.9935713700e-03 0.0000e+00 0.0000e+00
       11  1    1    2    0    0 -1.1260480889e-03 -5.4812503137e-03 +3.1059229730e-02 3.1563411740e-02 5.1099893000e-04 0.0000e+00 1.0000e+00
<vert_displacement>
306.77472223027752
</vert_displacement>
</event>
<event>
 4   1200 +8.5212000e+10 3.25072800e-02 7.81665300e-03            nan
       50 -1    0    0    0    0 +1.4500874120e-01 +2.3768825947e-02 +5.1433622134e+01 5.1433832282e+01 4.9935713700e-03 0.0000e+00 0.0000e+00
       11 -1    0    0    0    0 +5.5167671739e-18 +9.0427016789e-19 +1.9567600952e-15 5.1100000000e-04 5.1099893000e-04 0.0000e+00 1.0000e+00
       50  1    1    2    0    0 +1.1536855727e-01 +5.4885997886e-03 +5.0403477516e+01 5.0403610095e+01 4.9935713700e-03 0.0000e+00 0.0000e+00
       11  1    1    2    0    0 +2.9640183930e-02 +1.8280226159e-02 +1.0301446184e+00 1.0307331871e+00 5.1099893000e-04 0.0000e+00 1.0000e+00
<vert_displacement>
31.339739758346493
</vert_displacement>
</event>
<event>
 4   1200 +8.5212000e+10 3.79758500e-02 7.81665300e-03            nan
       50 -1    0    0    0    0 +4.1598901837e-02 +3.9594732746e-02 +3.0417210856e+01 3.0417265482e+01 4.9935713700e-03 0.0000e+00 0.0000e+00
       11 -1    0    0    0    0 +1.4993707612e-18 +1.4271334568e-18 +1.0963432827e-15 5.1100000000e-04 5.1099893000e-04 0.0000e+00 1.0000e+00
       50  1    1    2    0    0 +5.1132981519e-02 +1.8604888759e-03 +2.8960696186e+01 2.8960741816e+01 4.9935713700e-03 0.0000e+00 0.0000e+00
       11  1    1    2    0    0 -9.5340796821e-03 +3.7734243870e-02 +1.4565146697e+00 1.4570346654e+00 5.1099893000e-04 0.0000e+00 1.0000e+00
<vert_displacement>
269.95552019683248
</vert_displacement>
</event>
<event>
 4   1200 +8.5212000e+10 1.43745000e-02 7.81665300e-03            nan
       50 -1    0    0    0    0 +3.6398836211e-03 -3.2169037726e-03 +1.7092982101e+00 1.7093124068e+00 4.9935713700e-03 0.0000e+00 0.0000e+00
       11 -1    0    0    0    0 +3.9895316769e-19 -3.5259202871e-19 +1.8734937884e-16 5.1100000000e-04 5.1099893000e-04 0.0000e+00 1.0000e+00
       50  1    1    2    0    0 +3.6783278008e-03 +1.0634455970e-02 +1.5072679537e+00 1.5073182284e+00 4.9935713700e-03 0.0000e+00 0.0000e+00
       11  1    1    2    0    0 -3.8444179658e-05 -1.3851359742e-02 +2.0203025645e-01 2.0250517841e-01 5.1099893000e-04 0.0000e+00 1.0000e+00
<vert_displacement>
69.021600559218484
</vert_displacement>
</event>
<event>
 4   1200 +8.5212000e+10 6.62713800e-03 7.81665300e-03            nan
       50 -1    0    0    0    0 +6.9691200924e-03 +1.2319550330e-02 +5.8577923863e+00 5.8578116150e+00 4.9935713700e-03 0.0000e+00 0.0000e+00
       11 -1    0    0    0    0 +4.1276508767e-20 +7.2965886721e-20 +3.4694368239e-17 5.1100000000e-04 5.1099893000e-04 0.0000e+00 1.0000e+00
       50  1    1    2    0    0 +9.9202110327e-03 +1.5465134903e-02 +5.8391464897e+00 5.8391775316e+00 4.9935713700e-03 0.0000e+00 0.0000e+00
       11  1    1    2    0    0 -2.9510909402e-03 -3.1455845729e-03 +1.8645896526e-02 1.9145083369e-02 5.1099893000e-04 0.0000e+00 1.0000e+00
<vert_displacement>
257.83995557397208
</vert_displacement>
</event>
<event>
 4   1200 +8.5212000e+10 1.24502700e-02 7.81665300e-03            nan
       50 -1    0    0    0    0 +1.6846813486e-02 -2.4890297457e-02 +1.7137322235e+01 1.7137349318e+01 4.9935713700e-03 0.0000e+00 0.0000e+00
       11 -1    0    0    0    0 -2.3192272285e-18 +3.4265385341e-18 -2.3592202990e-15 5.1100000000e-04 5.1099893000e-04 0.0000e+00 1.0000e+00
       50  1    1    2    0    0 +1.5744936397e-02 -1.3340905367e-02 +1.7009101717e+01 1.7009114969e+01 4.9935713700e-03 0.0000e+00 0.0000e+00
       11  1    1    2    0    0 +1.1018770892e-03 -1.1549392090e-02 +1.2822051815e-01 1.2874534938e-01 5.1099893000e-04 0.0000e+00 1.0000e+00
<vert_displacement>
410.33328100822479
</vert_displacement>
</event>
<event>
 4   1200 +8.5212000e+10 3.07315200e-02 7.81665300e-03            nan
       50 -1    0    0    0    0 -1.4231977099e-02 -4.6400710415e-03 +6.3666042622e+00 6.3666238185e+00 4.9935713700e-03 0.0000e+00 0.0000e+00
       11 -1    0    0    0    0 +6.9800565490e-19 +2.2757174239e-19 -3.1224936258e-16 5.1100000000e-04 5.1099893000e-04 0.0000e+00 1.0000e+00
       50  1    1    2    0    0 -3.3952189755e-02 +1.6863514893e-02 +5.2810004326e+00 5.2811388577e+00 4.9935713700e-03 0.0000e+00 0.0000e+00
       11  1    1    2    0    0 +1.9720212656e-02 -2.1503585934e-02 +1.0856038296e+00 1.0859959608e+00 5.1099893000e-04 0.0000e+00 1.0000e+00
<vert_displacement>
423.63242182266646
</vert_displacement>
</event>
<event>
 4   1200 +8.5212000e+10 9.38216300e-03 7.81665300e-03            nan
       50 -1    0    0    0    0 +5.7863393935e-02 -4.3285585480e-02 +1.8056257325e+01 1.8056402613e+01 4.9935713700e-03 0.0000e+00 0.0000e+00
       11 -1    0    0    0    0 -7.1156227586e-19 +5.3229490393e-19 -2.2204282676e-16 5.1100000000e-04 5.1099893000e-04 0.0000e+00 1.0000e+00
       50  1    1    2    0    0 +6.5606449915e-02 -4.2995248112e-02 +1.7994287019e+01 1.7994458676e+01 4.9935713700e-03 0.0000e+00 0.0000e+00
       11  1    1    2    0    0 -7.7430559802e-03 -2.9033736742e-04 +6.1970305669e-02 6.2454936685e-02 5.1099893000e-04 0.0000e+00 1.0000e+00
<vert_displacement>
327.28934124919408
</vert_displacement>
</event>
<event>
 4   1200 +8.5212000e+10 1.63845000e-02 7.81665300e-03            nan
       50 -1    0    0    0    0 +4.3987214193e-02 -2.5385494645e-02 +1.9236761952e+01 1.9236829641e+01 4.9935713700e-03 0.0000e+00 0.0000e+00
       11 -1    0    0    0    0 +1.2693260933e-18 -7.3254174731e-19 +5.5510957774e-16 5.1100000000e-04 5.1099893000e-04 0.0000e+00 1.0000e+00
       50  1    1    2    0    0 +4.7515995927e-02 -1.0005016585e-02 +1.8995462081e+01 1.8995524802e+01 4.9935713700e-03 0.0000e+00 0.0000e+00
       11  1    1    2    0    0 -3.5287817348e-03 -1.5380478060e-02 +2.4129987092e-01 2.4181583950e-01 5.1099893000e-04 0.0000e+00 1.0000e+00
<vert_displacement>
324.40605566980349
</vert_displacement>
</event>
<event>
 4   1200 +8.5212000e+10 1.39111000e-02 7.81665300e-03            nan
       50 -1    0    0    0    0 +3.0409914874e-02 -8.4842859808e-02 +3.6238730119e+01 3.6238842540e+01 4.9935713700e-03 0.0000e+00 0.0000e+00
       11 -1    0    0    0    0 -1.4789886949e-18 +4.1263394200e-18 -1.7624736007e-15 5.1100000000e-04 5.1099893000e-04 0.0000e+00 1.0000e+00
       50  1    1    2    0    0 +4.1039842095e-02 -9.1708250528e-02 +3.6072989931e+01 3.6073130197e+01 4.9935713700e-03 0.0000e+00 0.0000e+00
       11  1    1    2    0    0 -1.0629927222e-02 +6.8653907203e-03 +1.6574018762e-01 1.6622334329e-01 5.1099893000e-04 0.0000e+00 1.0000e+00
<vert_displacement>
84.023094758049936
</vert_displacement>
</event>
<event>
 4   1200 +8.5212000e+10 1.05246800e-02 7.81665300e-03            nan
       50 -1    0    0    0    0 -2.3223845953e-02 +2.5781468163e-02 +1.4458639440e+01 1.4458681939e+01 4.9935713700e-03 0.0000e+00 0.0000e+00
       11 -1    0    0    0    0 +1.2259941448e-19 -1.3610118271e-19 -7.6327613140e-17 5.1100000000e-04 5.1099893000e-04 0.0000e+00 1.0000e+00
       50  1    1    2    0    0 -2.3045438415e-02 +3.4895326528e-02 +1.4374140406e+01 1.4374202104e+01 4.9935713700e-03 0.0000e+00 0.0000e+00
       11  1    1    2    0    0 -1.7840753791e-04 -9.1138583656e-03 +8.4499033438e-02 8.4990834891e-02 5.1099893000e-04 0.0000e+00 1.0000e+00
<vert_displacement>
273.07365496256119
</vert_displacement>
</event>
<event>
 4   1200 +8.5212000e+10 1.92489000e-02 7.81665300e-03            nan
       50 -1    0    0    0    0 -1.0450646675e-02 +7.8888628579e-04 +3.1088602864e+00 3.1088819621e+00 4.9935713700e-03 0.0000e+00 0.0000e+00
       11 -1    0    0    0    0 -6.4144944407e-19 +4.8420991084e-20 +1.9081849808e-16 5.1100000000e-04 5.1099893000e-04 0.0000e+00 1.0000e+00
       50  1    1    2    0    0 -5.5895215776e-03 -1.7554804024e-02 +2.7222130894e+00 2.7222800102e+00 4.9935713700e-03 0.0000e+00 0.0000e+00
       11  1    1    2    0    0 -4.8611250971e-03 +1.8343690309e-02 +3.8664719696e-01 3.8711295193e-01 5.1099893000e-04 0.0000e+00 1.0000e+00
<vert_displacement>
309.43804975080366
</vert_displacement>
</event>
<event>
 4   1200 +8.5212000e+10 1.48742200e-02 7.81665300e-03            nan
       50 -1    0    0    0    0 -1.4388689504e-03 -3.8576277167e-03 +3.3195114193e+00 3.3195177285e+00 4.9935713700e-03 0.0000e+00 0.0000e+00
       11 -1    0    0    0    0 -1.0978167469e-19 -2.9432620043e-19 +2.5326943268e-16 5.1100000000e-04 5.1099893000e-04 0.0000e+00 1.0000e+00
       50  1    1    2    0    0 +3.2963929095e-03 +9.5984679415e-03 +3.1146856511e+00 3.1147061880e+00 4.9935713700e-03 0.0000e+00 0.0000e+00
       11  1    1    2    0    0 -4.7352618599e-03 -1.3456095658e-02 +2.0482576818e-01 2.0532254052e-01 5.1099893000e-04 0.0000e+00 1.0000e+00
<vert_displacement>
400.38527053048568
</vert_displacement>
</event>
<event>
 4   1200 +8.5212000e+10 2.34075100e-02 7.81665300e-03            nan
       50 -1    0    0    0    0 -3.1148807730e-02 -1.1712737295e-02 +1.1952043547e+01 1.1952090919e+01 4.9935713700e-03 0.0000e+00 0.0000e+00
       11 -1    0    0    0    0 +2.3689675979e-18 +8.9079156331e-19 -9.0899157800e-16 5.1100000000e-04 5.1099893000e-04 0.0000e+00 1.0000e+00
       50  1    1    2    0    0 -4.9775287815e-02 -2.2235571699e-02 +1.1416174106e+01 1.1416305363e+01 4.9935713700e-03 0.0000e+00 0.0000e+00
       11  1    1    2    0    0 +1.8626480084e-02 +1.0522834404e-02 +5.3586944155e-01 5.3629655538e-01 5.1099893000e-04 0.0000e+00 1.0000e+00
<vert_displacement>
357.07945950687889
</vert_displacement>
</event>
<event>
 4   1200 +8.5212000e+10 3.47167200e-02 7.81665300e-03            nan
       50 -1    0    0    0    0 -6.5150094895e-03 +9.8884330183e-03 +1.5833398686e+01 1.5833403901e+01 4.9935713700e-03 0.0000e+00 0.0000e+00
       11 -1    0    0    0    0 +1.0849622495e-19 -1.6467476446e-19 -2.6367789460e-16 5.1100000000e-04 5.1099893000e-04 0.0000e+00 1.0000e+00
       50  1    1    2    0    0 +3.3172205438e-03 -2.3963536704e-02 +1.4578933449e+01 1.4578954377e+01 4.9935713700e-03 0.0000e+00 0.0000e+00
       11  1    1    2    0    0 -9.8322300333e-03 +3.3851969722e-02 +1.2544652362e+00 1.2549605247e+00 5.1099893000e-04 0.0000e+00 1.0000e+00
<vert_displacement>
62.269909958804725
</vert_displacement>
</event>
<event>
 4   1200 +8.5212000e+10 2.04701500e-02 7.81665300e-03            nan
       50 -1    0    0    0    0 +5.3038843400e-03 +5.8388262105e-04 +1.0210412580e+01 1.0210415195e+01 4.9935713700e-03 0.0000e+00 0.0000e+00
       11 -1    0    0    0    0 -4.3253592819e-20 -4.7616085733e-21 -8.3266715477e-17 5.1100000000e-04 5.1099893000e-04 0.0000e+00 1.0000e+00
       50  1    1    2    0    0 -3.7156099384e-03 +1.8350199248e-02 +9.8089676762e+00 9.8089868154e+00 4.9935713700e-03 0.0000e+00 0.0000e+00
       11  1    1    2    0    0 +9.0194942783e-03 -1.7766316627e-02 +4.0144490393e-01 4.0193938012e-01 5.1099893000e-04 0.0000e+00 1.0000e+00
<vert_displacement>
123.56369394558453
</vert_displacement>
</event>
<event>
 4   1200 +8.5212000e+10 5.42836200e-03 7.81665300e-03            nan
       50 -1    0    0    0    0 +2.8488097506e-02 -4.9175425778e-03 +1.2402718847e+01 1.2402753544e+01 4.9935713700e-03 0.0000e+00 0.0000e+00
       11 -1    0    0    0    0 -3.3310557531e-18 +5.7499833015e-19 -1.4502248863e-15 5.1100000000e-04 5.1099893000e-04 0.0000e+00 1.0000e+00
       50  1    1    2    0    0 +2.8960915612e-02 -2.8426059474e-03 +1.2398282982e+01 1.2398318138e+01 4.9935713700e-03 0.0000e+00 0.0000e+00
       11  1    1    2    0    0 -4.7281810595e-04 -2.0749366304e-03 +4.4358648023e-03 4.9464063149e-03 5.1099893000e-04 0.0000e+00 1.0000e+00
<vert_displacement>
133.87796888195589
</vert_displacement>
</event>
<event>
 4   1200 +8.5212000e+10 1.26956900e-02 7.81665300e-03            nan
       50 -1    0    0    0    0 +6.5839666352e-02 -5.2118289721e-02 +3.3536296030e+01 3.3536401529e+01 4.9935713700e-03 0.0000e+00 0.0000e+00
       11 -1    0    0    0    0 -1.1143322926e-17 +8.8209883930e-18 -5.6759974206e-15 5.1100000000e-04 5.1099893000e-04 0.0000e+00 1.0000e+00
       50  1    1    2    0    0 +5.6945886396e-02 -5.9768433420e-02 +3.3402452557e+01 3.3402554945e+01 4.9935713700e-03 0.0000e+00 0.0000e+00
       11  1    1    2    0    0 +8.8937799558e-03 +7.6501436988e-03 +1.3384347277e-01 1.3435758387e-01 5.1099893000e-04 0.0000e+00 1.0000e+00
<vert_displacement>
205.83497436429167
</vert_displacement>
</event>
<event>
 4   1200 +8.5212000e+10 1.58791500e-02 7.81665300e-03            nan
       50 -1    0    0    0    0 -3.6650200265e-02 +2.8457486281e-02 +3.8430847435e+01 3.8430875772e+01 4.9935713700e-03 0.0000e+00 0.0000e+00
       11 -1    0    0    0    0 +5.9953496896e-18 -4.6551609624e-18 -6.2866332946e-15 5.1100000000e-04 5.1099893000e-04 0.0000e+00 1.0000e+00
       50  1    1    2    0    0 -2.5670583722e-02 +1.7742152778e-02 +3.8207239973e+01 3.8207253042e+01 4.9935713700e-03 0.0000e+00 0.0000e+00
       11  1    1    2    0    0 -1.0979616543e-02 +1.0715333503e-02 +2.2360746258e-01 2.2413372970e-01 5.1099893000e-04 0.0000e+00 1.0000e+00
<vert_displacement>
403.13756048214560
</vert_displacement>
</event>
<event>
 4   1200 +8.5212000e+10 7.82495200e-03 7.81665300e-03            nan
       50 -1    0    0    0    0 +2.5457793520e-02 +4.7777640160e-03 +1.1982627980e+01 1.1982657016e+01 4.9935713700e-03 0.0000e+00 0.0000e+00
       11 -1    0    0    0    0 +3.4496399877e-18 +6.4740747419e-19 +1.6236973800e-15 5.1100000000e-04 5.1099893000e-04 0.0000e+00 -1.0000e+00
       50  1    1    2    0    0 +2.8832088464e-02 -1.7524200795e-04 +1.1947002250e+01 1.1947038086e+01 4.9935713700e-03 0.0000e+00 0.0000e+00
       11  1    1    2    0    0 -3.3742949446e-03 +4.9530060239e-03 +3.5625729647e-02 3.6129930360e-02 5.1099893000e-04 0.0000e+00 -1.0000e+00
<vert_displacement>
177.01433232604523
</vert_displacement>
</event>
<event>
 4   1200 +8.5212000e+10 1.41880700e-02 7.81665300e-03            nan
       50 -1    0    0    0    0 -6.7271241351e-02 -9.8230935479e-02 +4.0389512553e+01 4.0389688336e+01 4.9935713700e-03 0.0000e+00 0.0000e+00
       11 -1    0    0    0    0 +2.3576501325e-18 +3.4426922024e-18 -1.4155282065e-15 5.1100000000e-04 5.1099893000e-04 0.0000e+00 1.0000e+00
       50  1    1    2    0    0 -7.5060625961e-02 -8.7268520772e-02 +4.0216210086e+01 4.0216375129e+01 4.9935713700e-03 0.0000e+00 0.0000e+00
       11  1    1    2    0    0 +7.7893846103e-03 -1.0962414708e-02 +1.7330246689e-01 1.7382420774e-01 5.1099893000e-04 0.0000e+00 1.0000e+00
<vert_displacement>
181.46455149987617
</vert_displacement>
</event>
<event>
 4   1200 +8.5212000e+10 1.67485900e-02 7.81665300e-03            nan
       50 -1    0    0    0    0 -1.3113197197e-02 -2.3860163324e-02 +2.4990478985e+01 2.4990494315e+01 4.9935713700e-03 0.0000e+00 0.0000e+00
       11 -1    0    0    0    0 +2.9128222839e-20 +5.3000358633e-20 -5.5511118287e-17 5.1100000000e-04 5.1099893000e-04 0.0000e+00 1.0000e+00
       50  1    1    2    0    0 -1.7509834347e-02 -8.2871035071e-03 +2.4737852099e+01 2.4737860188e+01 4.9935713700e-03 0.0000e+00 0.0000e+00
       11  1    1    2    0    0 +4.3966371496e-03 -1.5573059817e-02 +2.5262688624e-01 2.5314512711e-01 5.1099893000e-04 0.0000e+00 1.0000e+00
<vert_displacement>
113.79419314908930
</vert_displacement>
</event>
<event>
 4   1200 +8.5212000e+10 5.98616500e-03 7.81665300e-03            nan
       50 -1    0    0    0    0 -5.2262496839e-02 -2.1601633351e-02 +1.9992456535e+01 1.9992537139e+01 4.9935713700e-03 0.0000e+00 0.0000e+00
       11 -1    0    0    0    0 -5.0426322783e-18 -2.0842688388e-18 +1.9290047883e-15 5.1100000000e-04 5.1099893000e-04 0.0000e+00 1.0000e+00
       50  1    1    2    0    0 -5.5524921419e-02 -2.1321459990e-02 +1.9981778476e+01 1.9981867621e+01 4.9935713700e-03 0.0000e+00 0.0000e+00
       11  1    1    2    0    0 +3.2624245803e-03 -2.8017336049e-04 +1.0678059033e-02 1.1180517692e-02 5.1099893000e-04 0.0000e+00 1.0000e+00
<vert_displacement>
376.50029478166357
</vert_displacement>
</event>
<event>
 4   1200 +8.5212000e+10 1.16180100e-02 7.81665300e-03            nan
       50 -1    0    0    0    0 -1.6695970026e-03 +6.9902948296e-03 +6.9140966521e+00 6.9141021906e+00 4.9935713700e-03 0.0000e+00 0.0000e+00
       11 -1    0    0    0    0 -3.8538433595e-20 +1.6135331621e-19 +1.5959447357e-16 5.1100000000e-04 5.1099893000e-04 0.0000e+00 1.0000e+00
       50  1    1    2    0    0 +4.9774750543e-03 +1.5016578772e-02 +6.8046709207e+00 6.8046911427e+00 4.9935713700e-03 0.0000e+00 0.0000e+00
       11  1    1    2    0    0 -6.6470720568e-03 -8.0262839421e-03 +1.0942573135e-01 1.0992204784e-01 5.1099893000e-04 0.0000e+00 1.0000e+00
<vert_displacement>
265.92325629232494
</vert_displacement>
</event>
<event>
 4   1200 +8.5212000e+10 6.69889600e-03 7.81665300e-03            nan
       50 -1    0    0    0    0 -3.0900462432e-02 +2.8511915351e-02 +1.1138699833e+01 1.1138780305e+01 4.9935713700e-03 0.0000e+00 0.0000e+00
       11 -1    0    0    0    0 -2.6949186940e-18 +2.4866065953e-18 +9.7143822601e-16 5.1100000000e-04 5.1099893000e-04 0.0000e+00 1.0000e+00
       50  1    1    2    0    0 -2.6466748048e-02 +2.7590508090e-02 +1.1119168851e+01 1.1119235702e+01 4.9935713700e-03 0.0000e+00 0.0000e+00
       11  1    1    2    0    0 -4.4337143843e-03 +9.2140726149e-04 +1.9530982110e-02 2.0055602626e-02 5.1099893000e-04 0.0000e+00 1.0000e+00
<vert_displacement>
36.602511986581028
</vert_displacement>
</event>
<event>
 4   1200 +8.5212000e+10 7.17789700e-03 7.81665300e-03            nan
       50 -1    0    0    0    0 +4.2491735944e-03 +5.8073895201e-03 +3.4172786942e+00 3.4172899190e+00 4.9935713700e-03 0.0000e+00 0.0000e+00
       11 -1    0    0    0    0 +3.1061030508e-19 +4.2451431801e-19 +2.4979962672e-16 5.1100000000e-04 5.1099893000e-04 0.0000e+00 1.0000e+00
       50  1    1    2    0    0 +8.3295176127e-03 +2.6531489123e-03 +3.3910582524e+00 3.3910731970e+00 4.9935713700e-03 0.0000e+00 0.0000e+00
       11  1    1    2    0    0 -4.0803440183e-03 +3.1542406078e-03 +2.6220441717e-02 2.6727722029e-02 5.1099893000e-04 0.0000e+00 1.0000e+00
<vert_displacement>
293.60687262418224
</vert_displacement>
</event>
<event>
 4   1200 +8.5212000e+10 1.94274500e-02 7.81665300e-03            nan
       50 -1    0    0    0    0 +4.7129870309e-03 +4.2118650130e-06 +2.1775874160e+00 2.1775982417e+00 4.9935713700e-03 0.0000e+00 0.0000e+00
       11 -1    0    0    0    0 -3.0035846225e-20 -2.6842197745e-23 -1.3877755304e-17 5.1100000000e-04 5.1099893000e-04 0.0000e+00 1.0000e+00
       50  1    1    2    0    0 +1.7768946010e-03 +1.8671005665e-02 +1.7462002582e+00 1.7463081175e+00 4.9935713700e-03 0.0000e+00 0.0000e+00
       11  1    1    2    0    0 +2.9360924299e-03 -1.8666793800e-02 +4.3138715773e-01 4.3180112414e-01 5.1099893000e-04 0.0000e+00 1.0000e+00
<vert_displacement>
96.702943735032605
</vert_displacement>
</event>
<event>
 4   1200 +8.5212000e+10 1.29565300e-02 7.81665300e-03            nan
       50 -1    0    0    0    0 -8.2731015708e-03 -5.5739149554e-03 +2.5963988107e+00 2.5964227762e+00 4.9935713700e-03 0.0000e+00 0.0000e+00
       11 -1    0    0    0    0 -6.9645738887e-19 -4.6923082261e-19 +2.1857354472e-16 5.1100000000e-04 5.1099893000e-04 0.0000e+00 1.0000e+00
       50  1    1    2    0    0 -1.6370358753e-02 -1.3590938393e-02 +2.4479008161e+00 2.4479983749e+00 4.9935713700e-03 0.0000e+00 0.0000e+00
       11  1    1    2    0    0 +8.0972571819e-03 +8.0170234378e-03 +1.4849799460e-01 1.4893540129e-01 5.1099893000e-04 0.0000e+00 1.0000e+00
<vert_displacement>
267.36331625134500
</vert_displacement>
</event>
<event>
 4   1200 +8.5212000e+10 5.13886100e-03 7.81665300e-03            nan
       50 -1    0    0    0    0 -5.2115467250e-02 -8.4594512449e-04 +3.5278198899e+01 3.5278237757e+01 4.9935713700e-03 0.0000e+00 0.0000e+00
       11 -1    0    0    0    0 +9.8405922640e-19 +1.5973378897e-20 -6.6613308772e-16 5.1100000000e-04 5.1099893000e-04 0.0000e+00 1.0000e+00
       50  1    1    2    0    0 -5.3091823309e-02 -1.2847974801e-04 +3.5276756943e+01 3.5276797248e+01 4.9935713700e-03 0.0000e+00 0.0000e+00
       11  1    1    2    0    0 +9.7635605937e-04 -7.1746537648e-04 +1.4419556681e-03 1.9515080774e-03 5.1099893000e-04 0.0000e+00 1.0000e+00
<vert_displacement>
105.81911729022329
</vert_displacement>
</event>
<event>
 4   1200 +8.5212000e+10 2.26169900e-02 7.81665300e-03            nan
       50 -1    0    0    0    0 -2.3611662671e-02 -1.9691304903e-02 +7.5890302197e+00 7.5890941402e+00 4.9935713700e-03 0.0000e+00 0.0000e+00
       11 -1    0    0    0    0 -1.4248557739e-18 -1.1882801257e-18 +4.5796323949e-16 5.1100000000e-04 5.1099893000e-04 0.0000e+00 1.0000e+00
       50  1    1    2    0    0 -4.3861728332e-02 -2.1473963079e-02 +7.0783435780e+00 7.0785138078e+00 4.9935713700e-03 0.0000e+00 0.0000e+00
       11  1    1    2    0    0 +2.0250065661e-02 +1.7826581756e-03 +5.1068664163e-01 5.1109133244e-01 5.1099893000e-04 0.0000e+00 1.0000e+00
<vert_displacement>
200.57300255416888
</vert_displacement>
</event>
<event>
 4   1200 +8.5212000e+10 2.01940000e-02 7.81665300e-03            nan
       50 -1    0    0    0    0 -2.4853133865e-03 -1.0709929522e-03 +2.2728558296e+00 2.2728629263e+00 4.9935713700e-03 0.0000e+00 0.0000e+00
       11 -1    0    0    0    0 -1.7830645756e-19 -7.6837376092e-20 +1.6306389115e-16 5.1100000000e-04 5.1099893000e-04 0.0000e+00 1.0000e+00
       50  1    1    2    0    0 -2.0569754193e-02 +5.2155760165e-03 +1.7977886547e+00 1.7979208269e+00 4.9935713700e-03 0.0000e+00 0.0000e+00
       11  1    1    2    0    0 +1.8084440806e-02 -6.2865689688e-03 +4.7506717492e-01 4.7545309943e-01 5.1099893000e-04 0.0000e+00 1.0000e+00
<vert_displacement>
468.22694352331843
</vert_displacement>
</event>
<event>
 4   1200 +8.5212000e+10 2.43854200e-02 7.81665300e-03            nan
       50 -1    0    0    0    0 +2.5973205438e-02 +3.1662209554e-02 +3.0245988901e+01 3.0246017038e+01 4.9935713700e-03 0.0000e+00 0.0000e+00
       11 -1    0    0    0    0 +1.3824059556e-18 +1.6851992781e-18 +1.6098219101e-15 5.1100000000e-04 5.1099893000e-04 0.0000e+00 1.0000e+00
       50  1    1    2    0    0 +7.7647929061e-03 +1.5077010268e-02 +2.9677882334e+01 2.9677887600e+01 4.9935713700e-03 0.0000e+00 0.0000e+00
       11  1    1    2    0    0 +1.8208412532e-02 +1.6585199286e-02 +5.6810656709e-01 5.6864043808e-01 5.1099893000e-04 0.0000e+00 1.0000e+00
<vert_displacement>
45.405489103046094
</vert_displacement>
</event>
<event>
 4   1200 +8.5212000e+10 7.27862400e-03 7.81665300e-03            nan
       50 -1    0    0    0    0 +1.8169326141e-03 -2.6450192913e-03 +4.0991835277e+00 4.0991878253e+00 4.9935713700e-03 0.0000e+00 0.0000e+00
       11 -1    0    0    0    0 -3.0756121778e-21 +4.4773556706e-21 -6.9388917778e-18 5.1100000000e-04 5.1099893000e-04 0.0000e+00 1.0000e+00
       50  1    1    2    0    0 +6.3451542732e-03 +9.8016162682e-05 +4.0715535628e+00 4.0715615703e+00 4.9935713700e-03 0.0000e+00 0.0000e+00
       11  1    1    2    0    0 -4.5282216591e-03 -2.7430354540e-03 +2.7629964900e-02 2.8137254933e-02 5.1099893000e-04 0.0000e+00 1.0000e+00
<vert_displacement>
183.98753975765388
</vert_displacement>
</event>
<event>
 4   1200 +8.5212000e+10 6.59081400e-03 7.81665300e-03            nan
       50 -1    0    0    0    0 +2.1890569613e-02 -3.1433633174e-03 +1.0042779071e+01 1.0042804662e+01 4.9935713700e-03 0.0000e+00 0.0000e+00
       11 -1    0    0    0    0 +2.5107324509e-18 -3.6052713226e-19 +1.1518535953e-15 5.1100000000e-04 5.1099893000e-04 0.0000e+00 1.0000e+00
       50  1    1    2    0    0 +2.2896361156e-02 -7.3102563630e-03 +1.0024637006e+01 1.0024667062e+01 4.9935713700e-03 0.0000e+00 0.0000e+00
       11  1    1    2    0    0 -1.0057915436e-03 +4.1668930456e-03 +1.8142065228e-02 1.8648599543e-02 5.1099893000e-04 0.0000e+00 1.0000e+00
<vert_displacement>
478.98638154004658
</vert_displacement>
</event>
<event>
 4   1200 +8.5212000e+10 2.87313900e-02 7.81665300e-03            nan
       50 -1    0    0    0    0 +8.0761652856e-03 +1.1307157661e-02 +8.9326150914e+00 8.9326272945e+00 4.9935713700e-03 0.0000e+00 0.0000e+00
       11 -1    0    0    0    0 -2.8858525100e-19 -4.0403815627e-19 -3.1918873340e-16 5.1100000000e-04 5.1099893000e-04 0.0000e+00 1.0000e+00
       50  1    1    2    0    0 +3.1133816360e-02 +2.5443247373e-02 +8.0646472893e+00 8.0647490668e+00 4.9935713700e-03 0.0000e+00 0.0000e+00
       11  1    1    2    0    0 -2.3057651074e-02 -1.4136089712e-02 +8.6796780212e-01 8.6838922779e-01 5.1099893000e-04 0.0000e+00 1.0000e+00
<vert_displacement>
431.17414427542320
</vert_displacement>
</event>
<event>
 4   1200 +8.5212000e+10 1.11914300e-02 7.81665300e-03            nan
       50 -1    0    0    0    0 +1.4560274864e-02 -9.6027622813e-03 +1.1659559565e+01 1.1659573680e+01 4.9935713700e-03 0.0000e+00 0.0000e+00
       11 -1    0    0    0    0 +2.0189850834e-18 -1.3315568550e-18 +1.6167604706e-15 5.1100000000e-04 5.1099893000e-04 0.0000e+00 1.0000e+00
       50  1    1    2    0    0 +6.9182833746e-03 -2.9041024703e-03 +1.1560574912e+01 1.1560578425e+01 4.9935713700e-03 0.0000e+00 0.0000e+00
       11  1    1    2    0    0 +7.6419914889e-03 -6.6986598110e-03 +9.8984653730e-02 9.9506255437e-02 5.1099893000e-04 0.0000e+00 1.0000e+00
<vert_displacement>
393.78922534686154
</vert_displacement>
</event>
<event>
 4   1200 +8.5212000e+10 8.78699600e-03 7.81665300e-03            nan
       50 -1    0    0    0    0 -3.0917757725e-02 -1.1367561882e-02 +2.2814238363e+01 2.2814262691e+01 4.9935713700e-03 0.0000e+00 0.0000e+00
       11 -1    0    0    0    0 -8.2751234527e-19 -3.0425226425e-19 +6.1062202702e-16 5.1100000000e-04 5.1099893000e-04 0.0000e+00 1.0000e+00
       50  1    1    2    0    0 -2.7639018695e-02 -1.7820919902e-02 +2.2762972826e+01 2.2762997130e+01 4.9935713700e-03 0.0000e+00 0.0000e+00
       11  1    1    2    0    0 -3.2787390298e-03 +6.4533580199e-03 +5.1265536492e-02 5.1776561406e-02 5.1099893000e-04 0.0000e+00 1.0000e+00
<vert_displacement>
220.62220325506655
</vert_displacement>
</event>
<event>
 4   1200 +8.5212000e+10 5.81700900e-02 7.81665300e-03            nan
       50 -1    0    0    0    0 +9.2172154081e-03 -3.6450486551e-02 +1.8725743429e+01 1.8725781839e+01 4.9935713700e-03 0.0000e+00 0.0000e+00
       11 -1    0    0    0    0 +6.4210771727e-19 -2.5392852046e-18 +1.3045094245e-15 5.1100000000e-04 5.1099893000e-04 0.0000e+00 1.0000e+00
       50  1    1    2    0    0 +7.0131101222e-03 +2.9786134483e-02 +1.4471403739e+01 1.4471436953e+01 4.9935713700e-03 0.0000e+00 0.0000e+00
       11  1    1    2    0    0 +2.2041052859e-03 -6.6236621034e-02 +4.2543396904e+00 4.2548558860e+00 5.1099893000e-04 0.0000e+00 1.0000e+00
<vert_displacement>
435.15418264996634
</vert_displacement>
</event>
<event>
 4   1200 +8.5212000e+10 2.03195100e-02 7.81665300e-03            nan
       50 -1    0    0    0    0 +1.1346222640e-02 +7.1391033465e-03 +3.2786826298e+00 3.2787138372e+00 4.9935713700e-03 0.0000e+00 0.0000e+00
       11 -1    0    0    0    0 +8.1642718192e-19 +5.1370030461e-19 +2.3592042080e-16 5.1100000000e-04 5.1099893000e-04 0.0000e+00 1.0000e+00
       50  1    1    2    0    0 +2.6702547634e-02 +1.6341294918e-02 +2.8397869763e+00 2.8399639206e+00 4.9935713700e-03 0.0000e+00 0.0000e+00
       11  1    1    2    0    0 -1.5356324994e-02 -9.2021915711e-03 +4.3889565352e-01 4.3926091659e-01 5.1099893000e-04 0.0000e+00 1.0000e+00
<vert_displacement>
19.276232898060350
</vert_displacement>
</event>
<event>
 4   1200 +8.5212000e+10 6.28856500e-03 7.81665300e-03            nan
       50 -1    0    0    0    0 +3.5346692232e-03 +1.6745419980e-03 +1.0238155925e+01 1.0238157890e+01 4.9935713700e-03 0.0000e+00 0.0000e+00
       11 -1    0    0    0    0 +2.8268272017e-19 +1.3392033516e-19 +8.1878942091e-16 5.1100000000e-04 5.1099893000e-04 0.0000e+00 1.0000e+00
       50  1    1    2    0    0 -2.8674314953e-04 +1.4604258925e-03 +1.0223840713e+01 1.0223842041e+01 4.9935713700e-03 0.0000e+00 0.0000e+00
       11  1    1    2    0    0 +3.8214123727e-03 +2.1411610551e-04 +1.4315211339e-02 1.4826848411e-02 5.1099893000e-04 0.0000e+00 1.0000e+00
<vert_displacement>
165.72341042111432
</vert_displacement>
</event>
<event>
 4   1200 +8.5212000e+10 6.02614000e-03 7.81665300e-03            nan
       50 -1    0    0    0    0 +7.1395805196e-03 -8.6008154389e-03 +7.0166617856e+00 7.0166724661e+00 4.9935713700e-03 0.0000e+00 0.0000e+00
       11 -1    0    0    0    0 -6.5662104383e-19 +7.9100955522e-19 -6.4531631420e-16 5.1100000000e-04 5.1099893000e-04 0.0000e+00 1.0000e+00
       50  1    1    2    0    0 +7.6093095484e-03 -1.1925879826e-02 +7.0055049558e+00 7.0055210191e+00 4.9935713700e-03 0.0000e+00 0.0000e+00
       11  1    1    2    0    0 -4.6972902882e-04 +3.3250643870e-03 +1.1156829866e-02 1.1662447046e-02 5.1099893000e-04 0.0000e+00 1.0000e+00
<vert_displacement>
457.32481694252948
</vert_displacement>
</event>
<event>
 4   1200 +8.5212000e+10 1.14015400e-02 7.81665300e-03            nan
       50 -1    0    0    0    0 -1.2515091026e-01 +2.5109949682e-02 +4.6089176534e+01 4.6089353562e+01 4.9935713700e-03 0.0000e+00 0.0000e+00
       11 -1    0    0    0    0 -1.8465017400e-18 +3.7047725569e-19 +6.8000899466e-16 5.1100000000e-04 5.1099893000e-04 0.0000e+00 1.0000e+00
       50  1    1    2    0    0 -1.1481838665e-01 +2.7054010581e-02 +4.5986173719e+01 4.5986325288e+01 4.9935713700e-03 0.0000e+00 0.0000e+00
       11  1    1    2    0    0 -1.0332523607e-02 -1.9440608989e-03 +1.0300281509e-01 1.0353927493e-01 5.1099893000e-04 0.0000e+00 1.0000e+00
<vert_displacement>
316.04837389718489
</vert_displacement>
</event>
<event>
 4   1200 +8.5212000e+10 8.97415900e-03 7.81665300e-03            nan
       50 -1    0    0    0    0 +2.3916449700e-03 -7.7508870136e-03 +8.2014918173e+00 8.2014973487e+00 4.9935713700e-03 0.0000e+00 0.0000e+00
       11 -1    0    0    0    0 +2.9744811731e-19 -9.6397533019e-19 +1.0200169050e-15 5.1100000000e-04 5.1099893000e-04 0.0000e+00 1.0000e+00
       50  1    1    2    0    0 +8.1407353923e-03 -2.9700834338e-03 +8.1467214467e+00 8.1467275859e+00 4.9935713700e-03 0.0000e+00 0.0000e+00
       11  1    1    2    0    0 -5.7490904222e-03 -4.7808035799e-03 +5.4770370633e-02 5.5280762863e-02 5.1099893000e-04 0.0000e+00 1.0000e+00
<vert_displacement>
422.31210859297926
</vert_displacement>
</event>
<event>
 4   1200 +8.5212000e+10 3.60752100e-02 7.81665300e-03            nan
       50 -1    0    0    0    0 +5.5768470054e-03 -1.0890740961e-03 +1.9766541150e+01 1.9766542597e+01 4.9935713700e-03 0.0000e+00 0.0000e+00
       11 -1    0    0    0    0 -2.5841767202e-19 +5.0465073241e-20 -9.1593395747e-16 5.1100000000e-04 5.1099893000e-04 0.0000e+00 1.0000e+00
       50  1    1    2    0    0 -2.5747978973e-02 -1.8869720293e-02 +1.8426560218e+01 1.8426588546e+01 4.9935713700e-03 0.0000e+00 0.0000e+00
       11  1    1    2    0    0 +3.1324825978e-02 +1.7780646197e-02 +1.3399809315e+00 1.3404650514e+00 5.1099893000e-04 0.0000e+00 1.0000e+00
<vert_displacement>
216.06627999411521
</vert_displacement>
</event>
<event>
 4   1200 +8.5212000e+10 8.68988200e-03 7.81665300e-03            nan
       50 -1    0    0    0    0 +2.0953651798e-02 +6.0058217091e-03 +1.3723753663e+01 1.3723771882e+01 4.9935713700e-03 0.0000e+00 0.0000e+00
       11 -1    0    0    0    0 -2.5002792172e-18 -7.1664029479e-19 -1.6375768958e-15 5.1100000000e-04 5.1099893000e-04 0.0000e+00 1.0000e+00
       50  1    1    2    0    0 +1.7894709324e-02 -4.7186851390e-04 +1.3674089647e+01 1.3674102275e+01 4.9935713700e-03 0.0000e+00 0.0000e+00
       11  1    1    2    0    0 +3.0589424735e-03 +6.4776902230e-03 +4.9664016944e-02 5.0180606798e-02 5.1099893000e-04 0.0000e+00 1.0000e+00
<vert_displacement>
490.41824806373285
</vert_displacement>
</event>
<event>
 4   1200 +8.5212000e+10 1.24043200e-02 7.81665300e-03            nan
       50 -1    0    0    0    0 -1.0741060172e-02 -4.7118285770e-03 +5.4086522118e+00 5.4086672347e+00 4.9935713700e-03 0.0000e+00 0.0000e+00
       11 -1    0    0    0    0 +5.7875747019e-19 +2.5388611028e-19 -2.9143285870e-16 5.1100000000e-04 5.1099893000e-04 0.0000e+00 1.0000e+00
       50  1    1    2    0    0 -7.4129864440e-04 -1.0430530756e-02 +5.2793954227e+00 5.2794081402e+00 4.9935713700e-03 0.0000e+00 0.0000e+00
       11  1    1    2    0    0 -9.9997615272e-03 +5.7187021790e-03 +1.2925678914e-01 1.2977009457e-01 5.1099893000e-04 0.0000e+00 1.0000e+00
<vert_displacement>
62.913290076591245
</vert_displacement>
</event>
<event>
 4   1200 +8.5212000e+10 7.45013400e-03 7.81665300e-03            nan
       50 -1    0    0    0    0 +1.5831327807e-04 +2.0474405183e-02 +1.2284037149e+01 1.2284055228e+01 4.9935713700e-03 0.0000e+00 0.0000e+00
       11 -1    0    0    0    0 +4.1136155024e-21 +5.3200736914e-19 +3.1918867619e-16 5.1100000000e-04 5.1099893000e-04 0.0000e+00 1.0000e+00
       50  1    1    2    0    0 -3.8046359991e-03 +2.4280176704e-02 +1.2254045519e+01 1.2254071182e+01 4.9935713700e-03 0.0000e+00 0.0000e+00
       11  1    1    2    0    0 +3.9629492771e-03 -3.8057715210e-03 +2.9991629965e-02 3.0495046347e-02 5.1099893000e-04 0.0000e+00 1.0000e+00
<vert_displacement>
152.80895300289816
</vert_displacement>
</event>
<event>
 4   1200 +8.5212000e+10 6.86775800e-03 7.81665300e-03            nan
       50 -1    0    0    0    0 -1.2542134925e-03 -3.1472196183e-02 +1.4082585969e+01 1.4082622078e+01 4.9935713700e-03 0.0000e+00 0.0000e+00
       11 -1    0    0    0    0 -2.9045314023e-20 -7.2883909044e-19 +3.2612719778e-16 5.1100000000e-04 5.1099893000e-04 0.0000e+00 1.0000e+00
       50  1    1    2    0    0 -5.2962081933e-03 -2.8999272988e-02 +1.4060804721e+01 1.4060836509e+01 4.9935713700e-03 0.0000e+00 0.0000e+00
       11  1    1    2    0    0 +4.0419947007e-03 -2.4729231946e-03 +2.1781248677e-02 2.2296568886e-02 5.1099893000e-04 0.0000e+00 1.0000e+00
<vert_displacement>
77.594451969708899
</vert_displacement>
</event>
<event>
 4   1200 +8.5212000e+10 9.50170400e-03 7.81665300e-03            nan
       50 -1    0    0    0    0 +2.6774766880e-02 -2.1119917367e-02 +2.4410305896e+01 2.4410330227e+01 4.9935713700e-03 0.0000e+00 0.0000e+00
       11 -1    0    0    0    0 +1.7353103090e-18 -1.3688115567e-18 +1.5820662662e-15 5.1100000000e-04 5.1099893000e-04 0.0000e+00 1.0000e+00
       50  1    1    2    0    0 +3.4541304039e-02 -1.9081964764e-02 +2.4346189260e+01 2.4346221753e+01 4.9935713700e-03 0.0000e+00 0.0000e+00
       11  1    1    2    0    0 -7.7665371593e-03 -2.0379526028e-03 +6.4116635585e-02 6.4619474068e-02 5.1099893000e-04 0.0000e+00 1.0000e+00
<vert_displacement>
194.36329198488295
</vert_displacement>
</event>
<event>
 4   1200 +8.5212000e+10 5.16836000e-03 7.81665300e-03            nan
       50 -1    0    0    0    0 -3.7777254910e-02 -7.5615165879e-05 +1.1825332361e+01 1.1825393758e+01 4.9935713700e-03 0.0000e+00 0.0000e+00
       11 -1    0    0    0    0 +1.0640114691e-18 +2.1297313403e-21 -3.3306520784e-16 5.1100000000e-04 5.1099893000e-04 0.0000e+00 -1.0000e+00
       50  1    1    2    0    0 -3.6631880367e-02 -7.6624402981e-04 +1.1823597722e+01 1.1823655548e+01 4.9935713700e-03 0.0000e+00 0.0000e+00
       11  1    1    2    0    0 -1.1453745425e-03 +6.9062886393e-04 +1.7346392120e-03 2.2492096773e-03 5.1099893000e-04 0.0000e+00 -1.0000e+00
<vert_displacement>
255.43557809198717
</vert_displacement>
</event>
<event>
 4   1200 +8.5212000e+10 1.52556300e-02 7.81665300e-03            nan
       50 -1    0    0    0    0 -5.9821778076e-03 -1.1341702290e-03 +1.8641830763e+00 1.8641997078e+00 4.9935713700e-03 0.0000e+00 0.0000e+00
       11 -1    0    0    0    0 -3.4513609834e-19 -6.5434880121e-20 +1.0755228183e-16 5.1100000000e-04 5.1099893000e-04 0.0000e+00 1.0000e+00
       50  1    1    2    0    0 -1.4909790156e-02 -1.1678741188e-02 +1.6313061661e+00 1.6314237457e+00 4.9935713700e-03 0.0000e+00 0.0000e+00
       11  1    1    2    0    0 +8.9276123489e-03 +1.0544570959e-02 +2.3287691026e-01 2.3328696211e-01 5.1099893000e-04 0.0000e+00 1.0000e+00
<vert_displacement>
324.34842141145640
</vert_displacement>
</event>
<event>
 4   1200 +8.5212000e+10 4.56588100e-02 7.81665300e-03            nan
       50 -1    0    0    0    0 +4.5767037341e-02 +1.6761078829e-02 +1.5123033982e+01 1.5123113348e+01 4.9935713700e-03 0.0000e+00 0.0000e+00
       11 -1    0    0    0    0 -2.8768845289e-18 -1.0535899017e-18 -9.5062352782e-16 5.1100000000e-04 5.1099893000e-04 0.0000e+00 1.0000e+00
       50  1    1    2    0    0 +7.8449743974e-02 -7.4619217111e-03 +1.2727343333e+01 1.2727588275e+01 4.9935713700e-03 0.0000e+00 0.0000e+00
       11  1    1    2    0    0 -3.2682706633e-02 +2.4223000540e-02 +2.3956906498e+00 2.3960360731e+00 5.1099893000e-04 0.0000e+00 1.0000e+00
<vert_displacement>
199.22665410417915
</vert_displacement>
</event>
<event>
 4   1200 +8.5212000e+10 1.33041500e-02 7.81665300e-03            nan
       50 -1    0    0    0    0 +2.4481144548e-02 +1.6050797812e-02 +1.5029323614e+01 1.5029352953e+01 4.9935713700e-03 0.0000e+00 0.0000e+00
       11 -1    0    0    0    0 -2.8256717799e-19 -1.8526211604e-19 -1.7347201854e-16 5.1100000000e-04 5.1099893000e-04 0.0000e+00 1.0000e+00
       50  1    1    2    0    0 +1.6302059700e-02 +2.5330205868e-02 +1.4879024898e+01 1.4879056227e+01 4.9935713700e-03 0.0000e+00 0.0000e+00
       11  1    1    2    0    0 +8.1790848476e-03 -9.2794080560e-03 +1.5029871679e-01 1.5080772603e-01 5.1099893000e-04 0.0000e+00 1.0000e+00
<vert_displacement>
478.43183434390954
</vert_displacement>
</event>
<event>
 4   1200 +8.5212000e+10 7.25595100e-03 7.81665300e-03            nan
       50 -1    0    0    0    0 +9.2734048528e-03 +9.2053704048e-03 +5.9661490082e+00 5.9661654066e+00 4.9935713700e-03 0.0000e+00 0.0000e+00
       11 -1    0    0    0    0 +1.0785352158e-19 +1.0706225290e-19 +6.9388772624e-17 5.1100000000e-04 5.1099893000e-04 0.0000e+00 1.0000e+00
       50  1    1    2    0    0 +4.0363178823e-03 +1.0016378783e-02 +5.9389120909e+00 5.9389240086e+00 4.9935713700e-03 0.0000e+00 0.0000e+00
       11  1    1    2    0    0 +5.2370869705e-03 -8.1100837842e-04 +2.7236917255e-02 2.7752398022e-02 5.1099893000e-04 0.0000e+00 1.0000e+00
<vert_displacement>
152.55364109610258
</vert_displacement>
</event>
<event>
 4   1200 +8.5212000e+10 3.15670600e-02 7.81665300e-03            nan
       50 -1    0    0    0    0 -2.9369330104e-02 +2.7077625797e-02 +1.3361879690e+01 1.3361940336e+01 4.9935713700e-03 0.0000e+00 0.0000e+00
       11 -1    0    0    0    0 -3.0960704037e-18 +2.8544823983e-18 +1.4085891677e-15 5.1100000000e-04 5.1099893000e-04 0.0000e+00 1.0000e+00
       50  1    1    2    0    0 -5.8215751302e-02 +2.6900682173e-02 +1.2331567688e+01 1.2331735454e+01 4.9935713700e-03 0.0000e+00 0.0000e+00
       11  1    1    2    0    0 +2.8846421199e-02 +1.7694362346e-04 +1.0303120017e+00 1.0307158819e+00 5.1099893000e-04 0.0000e+00 1.0000e+00
<vert_displacement>
9.9254060781156603
</vert_displacement>
</event>
<event>
 4   1200 +8.5212000e+10 6.67655400e-03 7.81665300e-03            nan
       50 -1    0    0    0    0 -1.2375084043e-02 +1.1379118093e-02 +5.8500394853e+00 5.8500657725e+00 4.9935713700e-03 0.0000e+00 0.0000e+00
       11 -1    0    0    0    0 +1.3210532473e-19 -1.2147328338e-19 -6.2449787268e-17 5.1100000000e-04 5.1099893000e-04 0.0000e+00 1.0000e+00
       50  1    1    2    0    0 -1.4057486434e-02 +1.5424633885e-02 +5.8307446408e+00 5.8307841269e+00 4.9935713700e-03 0.0000e+00 0.0000e+00
       11  1    1    2    0    0 +1.6824023912e-03 -4.0455157925e-03 +1.9294844457e-02 1.9792645562e-02 5.1099893000e-04 0.0000e+00 1.0000e+00
<vert_displacement>
166.22158975484587
</vert_displacement>
</event>
<event>
 4   1200 +8.5212000e+10 9.87876500e-03 7.81665300e-03            nan
       50 -1    0    0    0    0 +2.8854541646e-03 -1.1287258830e-02 +4.6162353566e+00 4.6162527586e+00 4.9935713700e-03 0.0000e+00 0.0000e+00
       11 -1    0    0    0    0 +1.7782751423e-19 -6.9562192493e-19 +2.8449374404e-16 5.1100000000e-04 5.1099893000e-04 0.0000e+00 1.0000e+00
       50  1    1    2    0    0 -3.6453144877e-03 -1.6641543915e-02 +4.5439917185e+00 4.5440263977e+00 4.9935713700e-03 0.0000e+00 0.0000e+00
       11  1    1    2    0    0 +6.5307686523e-03 +5.3542850842e-03 +7.2243638066e-02 7.2737360888e-02 5.1099893000e-04 0.0000e+00 1.0000e+00
<vert_displacement>
325.94081252057771
</vert_displacement>
</event>
<event>
 4   1200 +8.5212000e+10 1.68371000e-02 7.81665300e-03            nan
       50 -1    0    0    0    0 -5.8708154011e-02 -3.9992518771e-02 +2.0555952761e+01 2.0556076107e+01 4.9935713700e-03 0.0000e+00 0.0000e+00
       11 -1    0    0    0    0 -4.9940054120e-18 -3.4019610827e-18 +1.7485908230e-15 5.1100000000e-04 5.1099893000e-04 0.0000e+00 1.0000e+00
       50  1    1    2    0    0 -5.1764074766e-02 -5.4325080192e-02 +2.0299753739e+01 2.0299893042e+01 4.9935713700e-03 0.0000e+00 0.0000e+00
       11  1    1    2    0    0 -6.9440792447e-03 +1.4332561421e-02 +2.5619902244e-01 2.5669406455e-01 5.1099893000e-04 0.0000e+00 1.0000e+00
<vert_displacement>
278.37403931052285
</vert_displacement>
</event>
<event>
 4   1200 +8.5212000e+10 4.75258600e-02 7.81665300e-03            nan
       50 -1    0    0    0    0 -4.1484991594e-02 -8.5194475856e-03 +1.3201205884e+01 1.3201274761e+01 4.9935713700e-03 0.0000e+00 0.0000e+00
       11 -1    0    0    0    0 +2.3549905564e-18 +4.8362595337e-19 -7.4939668528e-16 5.1100000000e-04 5.1099893000e-04 0.0000e+00 1.0000e+00
       50  1    1    2    0    0 -4.4853439937e-02 -5.2431470833e-02 +1.0434500455e+01 1.0434729779e+01 4.9935713700e-03 0.0000e+00 0.0000e+00
       11  1    1    2    0    0 +3.3684483429e-03 +4.3912023247e-02 +2.7667054290e+00 2.7670559814e+00 5.1099893000e-04 0.0000e+00 1.0000e+00
<vert_displacement>
104.29344350463855
</vert_displacement>
</event>
<event>
 4   1200 +8.5212000e+10 3.12855300e-02 7.81665300e-03            nan
       50 -1    0    0    0    0 +2.7952150984e-02 +1.7513253249e-03 +9.8285654322e+00 9.8286066042e+00 4.9935713700e-03 0.0000e+00 0.0000e+00
       11 -1    0    0    0    0 +2.9600895057e-19 +1.8546264000e-20 +1.0408298599e-16 5.1100000000e-04 5.1099893000e-04 0.0000e+00 1.0000e+00
       50  1    1    2    0    0 +7.0720015066e-03 -2.3596469689e-02 +8.7839501738e+00 8.7839861338e+00 4.9935713700e-03 0.0000e+00 0.0000e+00
       11  1    1    2    0    0 +2.0880149477e-02 +2.5347795014e-02 +1.0446152584e+00 1.0451314704e+00 5.1099893000e-04 0.0000e+00 1.0000e+00
<vert_displacement>
131.43689648783979
</vert_displacement>
</event>
<event>
 4   1200 +8.5212000e+10 2.27474100e-02 7.81665300e-03            nan
       50 -1    0    0    0    0 +4.3068540426e-03 -1.8022889773e-03 +1.0691123617e+01 1.0691125802e+01 4.9935713700e-03 0.0000e+00 0.0000e+00
       11 -1    0    0    0    0 +2.1244210737e-19 -8.8900637134e-20 +5.2735588641e-16 5.1100000000e-04 5.1099893000e-04 0.0000e+00 1.0000e+00
       50  1    1    2    0    0 +4.5168990872e-03 -2.3905687408e-02 +1.0185194039e+01 1.0185224320e+01 4.9935713700e-03 0.0000e+00 0.0000e+00
       11  1    1    2    0    0 -2.1004504460e-04 +2.2103398431e-02 +5.0592957749e-01 5.0641248291e-01 5.1099893000e-04 0.0000e+00 1.0000e+00
<vert_displacement>
312.62010336550105
</vert_displacement>
</event>
<event>
 4   1200 +8.5212000e+10 2.72743500e-02 7.81665300e-03            nan
       50 -1    0    0    0    0 -2.1501131460e-03 +5.5269776111e-03 +2.1699135083e+01 2.1699136468e+01 4.9935713700e-03 0.0000e+00 0.0000e+00
       11 -1    0    0    0    0 +1.2788572393e-19 -3.2873690123e-19 -1.2906342179e-15 5.1100000000e-04 5.1099893000e-04 0.0000e+00 1.0000e+00
       50  1    1    2    0    0 +9.7827725438e-03 +2.9388955130e-02 +2.0971188026e+01 2.0971211495e+01 4.9935713700e-03 0.0000e+00 0.0000e+00
       11  1    1    2    0    0 -1.1932885690e-02 -2.3861977519e-02 +7.2794705708e-01 7.2843597301e-01 5.1099893000e-04 0.0000e+00 1.0000e+00
<vert_displacement>
207.34431623934452
</vert_displacement>
</event>
<event>
 4   1200 +8.5212000e+10 3.87069900e-02 7.81665300e-03            nan
       50 -1    0    0    0    0 -1.4822920986e-02 +7.3023608464e-02 +3.9930224322e+01 3.9930294157e+01 4.9935713700e-03 0.0000e+00 0.0000e+00
       11 -1    0    0    0    0 +3.5031637884e-19 -1.7257979119e-18 -9.4368792786e-16 5.1100000000e-04 5.1099893000e-04 0.0000e+00 1.0000e+00
       50  1    1    2    0    0 -3.9045897184e-02 +4.0970707350e-02 +3.8432454150e+01 3.8432496147e+01 4.9935713700e-03 0.0000e+00 0.0000e+00
       11  1    1    2    0    0 +2.4222976198e-02 +3.2052901114e-02 +1.4977701721e+00 1.4983090104e+00 5.1099893000e-04 0.0000e+00 1.0000e+00
<vert_displacement>
139.08188418943911
</vert_displacement>
</event>
<event>
 4   1200 +8.5212000e+10 8.86303600e-03 7.81665300e-03            nan
       50 -1    0    0    0    0 -1.6317605810e-02 -3.4675156123e-03 +1.7298486254e+01 1.7298495019e+01 4.9935713700e-03 0.0000e+00 0.0000e+00
       11 -1    0    0    0    0 -1.0079966825e-18 -2.1420080092e-19 +1.0685891643e-15 5.1100000000e-04 5.1099893000e-04 0.0000e+00 1.0000e+00
       50  1    1    2    0    0 -2.2222421295e-02 -7.7186638760e-03 +1.7245854474e+01 1.7245871242e+01 4.9935713700e-03 0.0000e+00 0.0000e+00
       11  1    1    2    0    0 +5.9048154846e-03 +4.2511482637e-03 +5.2631780645e-02 5.3134777324e-02 5.1099893000e-04 0.0000e+00 1.0000e+00
<vert_displacement>
108.03058551433774
</vert_displacement>
</event>
<event>
 4   1200 +8.5212000e+10 1.36568700e-02 7.81665300e-03            nan
       50 -1    0    0    0    0 +1.6912319238e-03 +2.9720933570e-03 +3.6996514807e+00 3.6996564311e+00 4.9935713700e-03 0.0000e+00 0.0000e+00
       11 -1    0    0    0    0 +1.1101980490e-20 +1.9510110942e-20 +2.4286118289e-17 5.1100000000e-04 5.1099893000e-04 0.0000e+00 1.0000e+00
       50  1    1    2    0    0 -1.1095445765e-02 +2.9106409706e-03 +3.5340803959e+00 3.5341025397e+00 4.9935713700e-03 0.0000e+00 0.0000e+00
       11  1    1    2    0    0 +1.2786677688e-02 +6.1452386413e-05 +1.6557108484e-01 1.6606489141e-01 5.1099893000e-04 0.0000e+00 1.0000e+00
<vert_displacement>
62.630098989498578
</vert_displacement>
</event>
<event>
 4   1200 +8.5212000e+10 1.04217600e-02 7.81665300e-03            nan
       50 -1    0    0    0    0 -1.3375068481e-04 +4.4918263346e-03 +7.9709029127e+00 7.9709057436e+00 4.9935713700e-03 0.0000e+00 0.0000e+00
       11 -1    0    0    0    0 -1.0479032384e-21 +3.5192338413e-20 +6.2450035210e-17 5.1100000000e-04 5.1099893000e-04 0.0000e+00 1.0000e+00
       50  1    1    2    0    0 +2.4008673516e-03 -4.3445693185e-03 +7.8881651135e+00 7.8881682558e+00 4.9935713700e-03 0.0000e+00 0.0000e+00
       11  1    1    2    0    0 -2.5346180364e-03 +8.8363956532e-03 +8.2737799248e-02 8.3248487800e-02 5.1099893000e-04 0.0000e+00 1.0000e+00
<vert_displacement>
239.94448123925261
</vert_displacement>
</event>
<event>
 4   1200 +8.5212000e+10 1.04397100e-02 7.81665300e-03            nan
       50 -1    0    0    0    0 -9.4678362186e-03 -3.7272142632e-02 +1.8661338804e+01 1.8661379095e+01 4.9935713700e-03 0.0000e+00 0.0000e+00
       11 -1    0    0    0    0 -3.9428956779e-19 -1.5522043970e-18 +7.7715446712e-16 5.1100000000e-04 5.1099893000e-04 0.0000e+00 1.0000e+00
       50  1    1    2    0    0 -9.0842167259e-03 -4.6268736829e-02 +1.8578709896e+01 1.8578770402e+01 4.9935713700e-03 0.0000e+00 0.0000e+00
       11  1    1    2    0    0 -3.8361949275e-04 +8.9965941974e-03 +8.2628907712e-02 8.3119693097e-02 5.1099893000e-04 0.0000e+00 1.0000e+00
<vert_displacement>
397.08797010045549
</vert_displacement>
</event>
<event>
 4   1200 +8.5212000e+10 1.81862500e-02 7.81665300e-03            nan
       50 -1    0    0    0    0 -1.4346386961e-02 +3.9263232188e-03 +4.1292098106e+00 4.1292396189e+00 4.9935713700e-03 0.0000e+00 0.0000e+00
       11 -1    0    0    0    0 +3.6162152965e-19 -9.8968681951e-20 -1.0408273331e-16 5.1100000000e-04 5.1099893000e-04 0.0000e+00 1.0000e+00
       50  1    1    2    0    0 -9.7091604570e-03 +2.0749067657e-02 +3.8042223102e+00 3.8042945618e+00 4.9935713700e-03 0.0000e+00 0.0000e+00
       11  1    1    2    0    0 -4.6372265038e-03 -1.6822744438e-02 +3.2498750041e-01 3.2545605716e-01 5.1099893000e-04 0.0000e+00 1.0000e+00
<vert_displacement>
162.72566946893110
</vert_displacement>
</event>
<event>
 4   1200 +8.5212000e+10 7.60079800e-03 7.81665300e-03            nan
       50 -1    0    0    0    0 -3.1342301888e-02 +2.2805301639e-02 +1.0268570699e+01 1.0268645069e+01 4.9935713700e-03 0.0000e+00 0.0000e+00
       11 -1    0    0    0    0 +1.0589563266e-19 -7.7051834084e-20 -3.4694222349e-17 5.1100000000e-04 5.1099893000e-04 0.0000e+00 1.0000e+00
       50  1    1    2    0    0 -3.0493965068e-02 +2.8414723823e-02 +1.0236328061e+01 1.0236414138e+01 4.9935713700e-03 0.0000e+00 0.0000e+00
       11  1    1    2    0    0 -8.4833682043e-04 -5.6094221843e-03 +3.2242637447e-02 3.2741931556e-02 5.1099893000e-04 0.0000e+00 1.0000e+00
<vert_displacement>
155.56498431170837
</vert_displacement>
</event>
<event>
 4   1200 +8.5212000e+10 1.28637100e-02 7.81665300e-03            nan
       50 -1    0    0    0    0 -1.3502673606e-02 -1.1994894651e-02 +4.0814750091e+01 4.0814754392e+01 4.9935713700e-03 0.0000e+00 0.0000e+00
       11 -1    0    0    0    0 -3.6270197442e-19 -3.2220078036e-19 +1.0963451295e-15 5.1100000000e-04 5.1099893000e-04 0.0000e+00 1.0000e+00
       50  1    1    2    0    0 -4.9823299062e-03 -3.6646586096e-03 +4.0676772817e+01 4.0676773593e+01 4.9935713700e-03 0.0000e+00 0.0000e+00
       11  1    1    2    0    0 -8.5203437002e-03 -8.3302360417e-03 +1.3797727408e-01 1.3849179893e-01 5.1099893000e-04 0.0000e+00 1.0000e+00
<vert_displacement>
219.30212439487633
</vert_displacement>
</event>
<event>
 4   1200 +8.5212000e+10 1.09180100e-02 7.81665300e-03            nan
       50 -1    0    0    0    0 +2.0482362582e-02 -1.1430808683e-02 +1.2891008116e+01 1.2891030423e+01 4.9935713700e-03 0.0000e+00 0.0000e+00
       11 -1    0    0    0    0 -3.6162341231e-18 +2.0181500181e-18 -2.2759534328e-15 5.1100000000e-04 5.1099893000e-04 0.0000e+00 1.0000e+00
       50  1    1    2    0    0 +2.0347714496e-02 -1.6393063719e-03 +1.2798104362e+01 1.2798121616e+01 4.9935713700e-03 0.0000e+00 0.0000e+00
       11  1    1    2    0    0 +1.3464808604e-04 -9.7915023116e-03 +9.2903754182e-02 9.3419806832e-02 5.1099893000e-04 0.0000e+00 1.0000e+00
<vert_displacement>
277.53792453745928
</vert_displacement>
</event>
<event>
 4   1200 +8.5212000e+10 2.03571200e-02 7.81665300e-03            nan
       50 -1    0    0    0    0 -3.1125620993e-02 -7.9120324843e-03 +1.6743457878e+01 1.6743489422e+01 4.9935713700e-03 0.0000e+00 0.0000e+00
       11 -1    0    0    0    0 +5.9336257528e-19 +1.5083085320e-19 -3.1918853242e-16 5.1100000000e-04 5.1099893000e-04 0.0000e+00 1.0000e+00
       50  1    1    2    0    0 -1.1393488236e-02 -1.3039834706e-02 +1.6353279994e+01 1.6353289924e+01 4.9935713700e-03 0.0000e+00 0.0000e+00
       11  1    1    2    0    0 -1.9732132757e-02 +5.1278022212e-03 +3.9017788407e-01 3.9071049865e-01 5.1099893000e-04 0.0000e+00 1.0000e+00
<vert_displacement>
138.18822889317121
</vert_displacement>
</event>
<event>
 4   1200 +8.5212000e+10 5.45575600e-02 7.81665300e-03            nan
       50 -1    0    0    0    0 -2.1723290612e-03 +4.0586891490e-03 +1.5516440974e+01 1.5516442461e+01 4.9935713700e-03 0.0000e+00 0.0000e+00
       11 -1    0    0    0    0 -2.2343518437e-19 +4.1745699328e-19 +1.5959455277e-15 5.1100000000e-04 5.1099893000e-04 0.0000e+00 1.0000e+00
       50  1    1    2    0    0 -5.5958632148e-02 +2.3431006518e-03 +1.1676534551e+01 1.1676669941e+01 4.9935713700e-03 0.0000e+00 0.0000e+00
       11  1    1    2    0    0 +5.3786303087e-02 +1.7155884972e-03 +3.8399064228e+00 3.8402835191e+00 5.1099893000e-04 0.0000e+00 1.0000e+00
<vert_displacement>
465.58259986487411
</vert_displacement>
</event>
<event>
 4   1200 +8.5212000e+10 2.03305300e-02 7.81665300e-03            nan
       50 -1    0    0    0    0 -3.1732299724e-02 +1.6649169291e-04 +1.8467928366e+01 1.8467956304e+01 4.9935713700e-03 0.0000e+00 0.0000e+00
       11 -1    0    0    0    0 -1.6214810623e-18 +8.5075185042e-21 +9.4368817785e-16 5.1100000000e-04 5.1099893000e-04 0.0000e+00 1.0000e+00
       50  1    1    2    0    0 -3.5255576673e-02 -1.9094105949e-02 +1.8079706084e+01 1.8079751231e+01 4.9935713700e-03 0.0000e+00 0.0000e+00
       11  1    1    2    0    0 +3.5232769489e-03 +1.9260597641e-02 +3.8822228219e-01 3.8871607326e-01 5.1099893000e-04 0.0000e+00 1.0000e+00
<vert_displacement>
476.24658316625437
</vert_displacement>
</event>
<event>
 4   1200 +8.5212000e+10 1.05852100e-02 7.81665300e-03            nan
       50 -1    0    0    0    0 -1.4344437103e-04 -2.5430415089e-03 +1.6254878482e+00 1.6254975140e+00 4.9935713700e-03 0.0000e+00 0.0000e+00
       11 -1    0    0    0    0 -4.2863490832e-21 -7.5990180460e-20 +4.8572197696e-17 5.1100000000e-04 5.1099893000e-04 0.0000e+00 1.0000e+00
       50  1    1    2    0    0 -1.8146506885e-03 -1.1582689232e-02 +1.5351128351e+00 1.5351657252e+00 4.9935713700e-03 0.0000e+00 0.0000e+00
       11  1    1    2    0    0 +1.6712063175e-03 +9.0396477228e-03 +9.0375013085e-02 9.0842788770e-02 5.1099893000e-04 0.0000e+00 1.0000e+00
<vert_displacement>
203.00891586630812
</vert_displacement>
</event>
<event>
 4   1200 +8.5212000e+10 1.04907700e-02 7.81665300e-03            nan
       50 -1    0    0    0    0 +1.3812580942e-02 -4.8294622379e-03 +1.0763354737e+01 1.0763365842e+01 4.9935713700e-03 0.0000e+00 0.0000e+00
       11 -1    0    0    0    0 -4.9866059961e-19 +1.7435282700e-19 -3.8857769954e-16 5.1100000000e-04 5.1099893000e-04 0.0000e+00 1.0000e+00
       50  1    1    2    0    0 +1.8846930311e-02 +2.8684649745e-03 +1.0679403231e+01 1.0679421414e+01 4.9935713700e-03 0.0000e+00 0.0000e+00
       11  1    1    2    0    0 -5.0343493690e-03 -7.6979272124e-03 +8.3951506420e-02 8.4455427931e-02 5.1099893000e-04 0.0000e+00 1.0000e+00
<vert_displacement>
462.68923123829978
</vert_displacement>
</event>
<event>
 4   1200 +8.5212000e+10 6.36409800e-03 7.81665300e-03            nan
       50 -1    0    0    0    0 +2.0217203136e-03 -4.2608997760e-03 +1.9004548175e+00 1.9004672299e+00 4.9935713700e-03 0.0000e+00 0.0000e+00
       11 -1    0    0    0    0 +5.9053062177e-20 -1.2445795678e-19 +5.5510980301e-17 5.1100000000e-04 5.1099893000e-04 0.0000e+00 1.0000e+00
       50  1    1    2    0    0 +1.1133304656e-03 -3.8326519392e-04 +1.8851036388e+00 1.8851106204e+00 4.9935713700e-03 0.0000e+00 0.0000e+00
       11  1    1    2    0    0 +9.0838984802e-04 -3.8776345821e-03 +1.5351178698e-02 1.5867609441e-02 5.1099893000e-04 0.0000e+00 1.0000e+00
<vert_displacement>
160.87437038737187
</vert_displacement>
</event>
<event>
 4   1200 +8.5212000e+10 1.78615600e-02 7.81665300e-03            nan
       50 -1    0    0    0    0 +5.8799652021e-02 +7.9148240860e-02 +6.2977527426e+01 6.2977604809e+01 4.9935713700e-03 0.0000e+00 0.0000e+00
       11 -1    0    0    0    0 +6.9968509192e-19 +9.4182265164e-19 +7.4939962316e-16 5.1100000000e-04 5.1099893000e-04 0.0000e+00 1.0000e+00
       50  1    1    2    0    0 +5.3334085081e-02 +6.2441589337e-02 +6.2688454574e+01 6.2688508559e+01 4.9935713700e-03 0.0000e+00 0.0000e+00
       11  1    1    2    0    0 +5.4655669394e-03 +1.6706651522e-02 +2.8907285208e-01 2.8960725052e-01 5.1099893000e-04 0.0000e+00 1.0000e+00
<vert_displacement>
116.62734437571591
</vert_displacement>
</event>
<event>
 4   1200 +8.5212000e+10 2.30316000e-02 7.81665300e-03            nan
       50 -1    0    0    0    0 +2.0792663607e-02 -1.8508528623e-02 +7.2968188304e+00 7.2968736374e+00 4.9935713700e-03 0.0000e+00 0.0000e+00
       11 -1    0    0    0    0 -1.9377142204e-18 +1.7248506391e-18 -6.8000665423e-16 5.1100000000e-04 5.1099893000e-04 0.0000e+00 1.0000e+00
       50  1    1    2    0    0 +2.7506842472e-02 +3.7667880318e-03 +6.7629927190e+00 6.7630515500e+00 4.9935713700e-03 0.0000e+00 0.0000e+00
       11  1    1    2    0    0 -6.7141788651e-03 -2.2275316654e-02 +5.3382611144e-01 5.3433308741e-01 5.1099893000e-04 0.0000e+00 1.0000e+00
<vert_displacement>
170.10182243349863
</vert_displacement>
</event>
<event>
 4   1200 +8.5212000e+10 2.10184100e-02 7.81665300e-03            nan
       50 -1    0    0    0    0 +8.5777310056e-03 -1.3334762688e-02 +9.7193100625e+00 9.7193242780e+00 4.9935713700e-03 0.0000e+00 0.0000e+00
       11 -1    0    0    0    0 -3.5518502616e-19 +5.5216327382e-19 -4.0245531091e-16 5.1100000000e-04 5.1099893000e-04 0.0000e+00 1.0000e+00
       50  1    1    2    0    0 +2.8547726565e-02 -1.1059541461e-02 +9.2926325268e+00 9.2926843001e+00 4.9935713700e-03 0.0000e+00 0.0000e+00
       11  1    1    2    0    0 -1.9969995559e-02 -2.2752212265e-03 +4.2667753571e-01 4.2715097794e-01 5.1099893000e-04 0.0000e+00 1.0000e+00
<vert_displacement>
180.65914708580965
</vert_displacement>
</event>
<event>
 4   1200 +8.5212000e+10 1.00383100e-02 7.81665300e-03            nan
       50 -1    0    0    0    0 -1.6622774215e-02 +6.4074250178e-03 +2.9168417697e+01 2.9168423565e+01 4.9935713700e-03 0.0000e+00 0.0000e+00
       11 -1    0    0    0    0 -9.3323883861e-19 +3.5972683048e-19 +1.6375786559e-15 5.1100000000e-04 5.1099893000e-04 0.0000e+00 1.0000e+00
       50  1    1    2    0    0 -1.3137712794e-02 +1.4389830374e-02 +2.9094027218e+01 2.9094034172e+01 4.9935713700e-03 0.0000e+00 0.0000e+00
       11  1    1    2    0    0 -3.4850614212e-03 -7.9824053559e-03 +7.4390479194e-02 7.4900393611e-02 5.1099893000e-04 0.0000e+00 1.0000e+00
<vert_displacement>
247.93067728416798
</vert_displacement>
</event>
<event>
 4   1200 +8.5212000e+10 3.86259300e-02 7.81665300e-03            nan
       50 -1    0    0    0    0 -7.1528009952e-02 +4.6895971164e-02 +2.4235754233e+01 2.4235905671e+01 4.9935713700e-03 0.0000e+00 0.0000e+00
       11 -1    0    0    0    0 -5.3245203735e-19 +3.4909199077e-19 +1.8041011804e-16 5.1100000000e-04 5.1099893000e-04 0.0000e+00 1.0000e+00
       50  1    1    2    0    0 -3.1940808219e-02 +2.8519677117e-02 +2.2703422727e+01 2.2703463657e+01 4.9935713700e-03 0.0000e+00 0.0000e+00
       11  1    1    2    0    0 -3.9587201733e-02 +1.8376294046e-02 +1.5323315063e+00 1.5329530133e+00 5.1099893000e-04 0.0000e+00 1.0000e+00
<vert_displacement>
301.34689709458854
</vert_displacement>
</event>
<event>
 4   1200 +8.5212000e+10 5.72759100e-02 7.81665300e-03            nan
       50 -1    0    0    0    0 +4.4450992350e-02 +7.7127183833e-02 +4.1996882746e+01 4.1996977389e+01 4.9935713700e-03 0.0000e+00 0.0000e+00
       11 -1    0    0    0    0 -2.9671195273e-18 -5.1482669145e-18 -2.8033068395e-15 5.1100000000e-04 5.1099893000e-04 0.0000e+00 1.0000e+00
       50  1    1    2    0    0 +5.0758726981e-02 +1.2692669245e-01 +3.8523871578e+01 3.8524114436e+01 4.9935713700e-03 0.0000e+00 0.0000e+00
       11  1    1    2    0    0 -6.3077346306e-03 -4.9799508620e-02 +3.4730111686e+00 3.4733739530e+00 5.1099893000e-04 0.0000e+00 1.0000e+00
<vert_displacement>
83.926933300723107
</vert_displacement>
</event>
<event>
 4   1200 +8.5212000e+10 8.67804400e-03 7.81665300e-03            nan
       50 -1    0    0    0    0 +4.9810405226e-03 +3.2165159102e-02 +1.2495660554e+01 1.2495703943e+01 4.9935713700e-03 0.0000e+00 0.0000e+00
       11 -1    0    0    0    0 +4.2596150275e-19 +2.7506540943e-18 +1.0685860361e-15 5.1100000000e-04 5.1099893000e-04 0.0000e+00 1.0000e+00
       50  1    1    2    0    0 -2.1312095751e-03 +3.1775483986e-02 +1.2446177488e+01 1.2446219234e+01 4.9935713700e-03 0.0000e+00 0.0000e+00
       11  1    1    2    0    0 +7.1122500976e-03 +3.8967511549e-04 +4.9483066545e-02 4.9995709244e-02 5.1099893000e-04 0.0000e+00 1.0000e+00
<vert_displacement>
10.617496143456469
</vert_displacement>
</event>
<event>
 4   1200 +8.5212000e+10 1.78072400e-02 7.81665300e-03            nan
       50 -1    0    0    0    0 +5.2713600004e-02 -2.4790409354e-02 +2.7241673851e+01 2.7241736590e+01 4.9935713700e-03 0.0000e+00 0.0000e+00
       11 -1    0    0    0    0 +3.0882039775e-18 -1.4523356547e-18 +1.5959419492e-15 5.1100000000e-04 5.1099893000e-04 0.0000e+00 1.0000e+00
       50  1    1    2    0    0 +5.2934180055e-02 -4.1602408460e-02 +2.6952711878e+01 2.6952796428e+01 4.9935713700e-03 0.0000e+00 0.0000e+00
       11  1    1    2    0    0 -2.2058005160e-04 +1.6811999106e-02 +2.8896197307e-01 2.8945116163e-01 5.1099893000e-04 0.0000e+00 1.0000e+00
<vert_displacement>
356.04835491478616
</vert_displacement>
</event>
<event>
 4   1200 +8.5212000e+10 5.93364200e-03 7.81665300e-03            nan
       50 -1    0    0    0    0 -5.2651474664e-02 +1.5082820962e-02 +1.5433421629e+01 1.5433519617e+01 4.9935713700e-03 0.0000e+00 0.0000e+00
       11 -1    0    0    0    0 -9.2320986823e-18 +2.6446760024e-18 +2.7061515825e-15 5.1100000000e-04 5.1099893000e-04 0.0000e+00 1.0000e+00
       50  1    1    2    0    0 -5.5808834967e-02 +1.5365300377e-02 +1.5423352398e+01 1.5423461831e+01 4.9935713700e-03 0.0000e+00 0.0000e+00
       11  1    1    2    0    0 +3.1573603024e-03 -2.8247941444e-04 +1.0069231092e-02 1.0568786751e-02 5.1099893000e-04 0.0000e+00 1.0000e+00
<vert_displacement>
254.49328929564061
</vert_displacement>
</event>
<event>
 4   1200 +8.5212000e+10 1.33616800e-02 7.81665300e-03            nan
       50 -1    0    0    0    0 +1.6383116366e-02 +1.1377051428e-02 +5.0767360113e+00 5.0767776501e+00 4.9935713700e-03 0.0000e+00 0.0000e+00
       11 -1    0    0    0    0 -1.0748307129e-18 -7.4640282250e-19 -3.3306433676e-16 5.1100000000e-04 5.1099893000e-04 0.0000e+00 1.0000e+00
       50  1    1    2    0    0 +2.1708611721e-02 +2.1968275475e-02 +4.9216273779e+00 4.9217268160e+00 4.9935713700e-03 0.0000e+00 0.0000e+00
       11  1    1    2    0    0 -5.3254953554e-03 -1.0591224047e-02 +1.5510863342e-01 1.5556183404e-01 5.1099893000e-04 0.0000e+00 1.0000e+00
<vert_displacement>
19.509449302106706
</vert_displacement>
</event>
<event>
 4   1200 +8.5212000e+10 6.31873900e-03 7.81665300e-03            nan
       50 -1    0    0    0    0 +5.4773078395e-02 +3.6532820296e-02 +1.9991732602e+01 1.9991841638e+01 4.9935713700e-03 0.0000e+00 0.0000e+00
       11 -1    0    0    0    0 +2.5474719238e-18 +1.6991254961e-18 +9.2980674088e-16 5.1100000000e-04 5.1099893000e-04 0.0000e+00 1.0000e+00
       50  1    1    2    0    0 +5.2435021580e-02 +3.9622186363e-02 +1.9977054104e+01 1.9977162835e+01 4.9935713700e-03 0.0000e+00 0.0000e+00
       11  1    1    2    0    0 +2.3380568152e-03 -3.0893660669e-03 +1.4678497962e-02 1.5189802984e-02 5.1099893000e-04 0.0000e+00 1.0000e+00
<vert_displacement>
4.5406543082560535
</vert_displacement>
</event>
<event>
 4   1200 +8.5212000e+10 1.61486300e-02 7.81665300e-03            nan
       50 -1    0    0    0    0 +3.8526120166e-03 +1.3289532871e-02 +5.3358203686e+00 5.3358406457e+00 4.9935713700e-03 0.0000e+00 0.0000e+00
       11 -1    0    0    0    0 +5.5611657591e-19 +1.9183165820e-18 +7.7021463367e-16 5.1100000000e-04 5.1099893000e-04 0.0000e+00 1.0000e+00
       50  1    1    2    0    0 +1.8896632772e-02 +1.0628980916e-02 +5.0940207897e+00 5.0940693752e+00 4.9935713700e-03 0.0000e+00 0.0000e+00
       11  1    1    2    0    0 -1.5044020756e-02 +2.6605519551e-03 +2.4179957891e-01 2.4228227045e-01 5.1099893000e-04 0.0000e+00 1.0000e+00
<vert_displacement>
325.60890122406505
</vert_displacement>
</event>
<event>
 4   1200 +8.5212000e+10 8.21742200e-03 7.81665300e-03            nan
       50 -1    0    0    0    0 +7.2302998471e-03 +8.6164430174e-03 +7.4520507443e+00 7.4520609063e+00 4.9935713700e-03 0.0000e+00 0.0000e+00
       11 -1    0    0    0    0 -9.3580434518e-19 -1.1152102936e-18 -9.6450515393e-16 5.1100000000e-04 5.1099893000e-04 0.0000e+00 1.0000e+00
       50  1    1    2    0    0 +7.5375297101e-03 +1.5084818749e-02 +7.4101301113e+00 7.4101509815e+00 4.9935713700e-03 0.0000e+00 0.0000e+00
       11  1    1    2    0    0 -3.0722986296e-04 -6.4683757312e-03 +4.1920633002e-02 4.2420924860e-02 5.1099893000e-04 0.0000e+00 1.0000e+00
<vert_displacement>
303.47608327414309
</vert_displacement>
</event>
<event>
 4   1200 +8.5212000e+10 6.88297500e-03 7.81665300e-03            nan
       50 -1    0    0    0    0 +9.9425419948e-03 +2.2960422048e-02 +1.6732954578e+01 1.6732974030e+01 4.9935713700e-03 0.0000e+00 0.0000e+00
       11 -1    0    0    0    0 -1.0884750795e-18 -2.5136275237e-18 -1.8318659427e-15 5.1100000000e-04 5.1099893000e-04 0.0000e+00 1.0000e+00
       50  1    1    2    0    0 +1.3289570403e-02 +2.6269313923e-02 +1.6710961879e+01 1.6710988556e+01 4.9935713700e-03 0.0000e+00 0.0000e+00
       11  1    1    2    0    0 -3.3470284080e-03 -3.3088918749e-03 +2.1992699214e-02 2.2496473128e-02 5.1099893000e-04 0.0000e+00 1.0000e+00
<vert_displacement>
250.52000276916911
</vert_displacement>
</event>
<event>
 4   1200 +8.5212000e+10 1.37634000e-02 7.81665300e-03            nan
       50 -1    0    0    0    0 -3.0994505960e-03 -1.1883413427e-03 +4.6004744485e+00 4.6004783562e+00 4.9935713700e-03 0.0000e+00 0.0000e+00
       11 -1    0    0    0    0 +2.1504535248e-19 +8.2449219625e-20 -3.1918903649e-16 5.1100000000e-04 5.1099893000e-04 0.0000e+00 1.0000e+00
       50  1    1    2    0    0 -2.5619269108e-03 -1.3963714871e-02 +4.4333999580e+00 4.4334255010e+00 4.9935713700e-03 0.0000e+00 0.0000e+00
       11  1    1    2    0    0 -5.3752368516e-04 +1.2775373528e-02 +1.6707449047e-01 1.6756385525e-01 5.1099893000e-04 0.0000e+00 1.0000e+00
<vert_displacement>
336.58799350222671
</vert_displacement>
</event>
<event>
 4   1200 +8.5212000e+10 3.77735800e-02 7.81665300e-03            nan
       50 -1    0    0    0    0 -2.2561978160e-02 -2.7788461917e-02 +1.1836403983e+01 1.1836459159e+01 4.9935713700e-03 0.0000e+00 0.0000e+00
       11 -1    0    0    0    0 -1.5739561097e-18 -1.9385631483e-18 +8.2572459888e-16 5.1100000000e-04 5.1099893000e-04 0.0000e+00 1.0000e+00
       50  1    1    2    0    0 +1.2043165241e-02 -4.4175703961e-02 +1.0252152933e+01 1.0252256396e+01 4.9935713700e-03 0.0000e+00 0.0000e+00
       11  1    1    2    0    0 -3.4605143401e-02 +1.6387242043e-02 +1.5842510507e+00 1.5847137629e+00 5.1099893000e-04 0.0000e+00 1.0000e+00
<vert_displacement>
433.93142753248753
</vert_displacement>
</event>
<event>
 4   1200 +8.5212000e+10 1.40239000e-02 7.81665300e-03            nan
       50 -1    0    0    0    0 -7.7193070646e-06 -4.0879247642e-02 +2.5028507280e+01 2.5028541162e+01 4.9935713700e-03 0.0000e+00 0.0000e+00
       11 -1    0    0    0    0 -1.1556512569e-22 -6.1199993110e-19 +3.7469977102e-16 5.1100000000e-04 5.1099893000e-04 0.0000e+00 1.0000e+00
       50  1    1    2    0    0 +2.3262679894e-03 -2.7707709455e-02 +2.4859343155e+01 2.4859359206e+01 4.9935713700e-03 0.0000e+00 0.0000e+00
       11  1    1    2    0    0 -2.3339872964e-03 -1.3171538187e-02 +1.6916412546e-01 1.6969295618e-01 5.1099893000e-04 0.0000e+00 1.0000e+00
<vert_displacement>
457.87583270263286
</vert_displacement>
</event>
<event>
 4   1200 +8.5212000e+10 7.38418800e-03 7.81665300e-03            nan
       50 -1    0    0    0    0 -1.3614301013e-03 -1.5652608102e-02 +9.9322606407e+00 9.9322743230e+00 4.9935713700e-03 0.0000e+00 0.0000e+00
       11 -1    0    0    0    0 -3.1387077850e-20 -3.6086291070e-19 +2.2898321233e-16 5.1100000000e-04 5.1099893000e-04 0.0000e+00 1.0000e+00
       50  1    1    2    0    0 +1.7304643922e-03 -1.1128538821e-02 +9.9032280533e+00 9.9032357162e+00 4.9935713700e-03 0.0000e+00 0.0000e+00
       11  1    1    2    0    0 -3.0918944935e-03 -4.5240692815e-03 +2.9032587341e-02 2.9549606800e-02 5.1099893000e-04 0.0000e+00 1.0000e+00
<vert_displacement>
423.68333897983962
</vert_displacement>
</event>
<event>
 4   1200 +8.5212000e+10 1.17856400e-02 7.81665300e-03            nan
       50 -1    0    0    0    0 +6.8626113537e-03 +9.5087465274e-03 +1.6261886935e+01 1.6261891930e+01 4.9935713700e-03 0.0000e+00 0.0000e+00
       11 -1    0    0    0    0 +1.6398216973e-19 +2.2721159725e-19 +3.8857795759e-16 5.1100000000e-04 5.1099893000e-04 0.0000e+00 -1.0000e+00
       50  1    1    2    0    0 +1.5588030926e-02 +3.3600438682e-03 +1.6149594466e+01 1.6149603110e+01 4.9935713700e-03 0.0000e+00 0.0000e+00
       11  1    1    2    0    0 -8.7254195720e-03 +6.1487026592e-03 +1.1229246968e-01 1.1279981985e-01 5.1099893000e-04 0.0000e+00 -1.0000e+00
<vert_displacement>
97.497868555038920
</vert_displacement>
</event>
<event>
 4   1200 +8.5212000e+10 1.30829900e-02 7.81665300e-03            nan
       50 -1    0    0    0    0 -2.0657954645e-02 -1.2670636967e-02 +9.3412249979e+00 9.3412577683e+00 4.9935713700e-03 0.0000e+00 0.0000e+00
       11 -1    0    0    0    0 -7.9794988413e-19 -4.8942567031e-19 +3.6082126875e-16 5.1100000000e-04 5.1099893000e-04 0.0000e+00 1.0000e+00
       50  1    1    2    0    0 -3.0675303044e-02 -6.2014926509e-03 +9.1958546280e+00 9.1959092377e+00 4.9935713700e-03 0.0000e+00 0.0000e+00
       11  1    1    2    0    0 +1.0017348399e-02 -6.4691443159e-03 +1.4537036993e-01 1.4585953061e-01 5.1099893000e-04 0.0000e+00 1.0000e+00
<vert_displacement>
450.86851452707964
</vert_displacement>
</event>
<event>
 4   1200 +8.5212000e+10 1.62574800e-02 7.81665300e-03            nan
       50 -1    0    0    0    0 -4.7426409787e-03 -3.3437458902e-03 +2.5562216307e+00 2.5562330947e+00 4.9935713700e-03 0.0000e+00 0.0000e+00
       11 -1    0    0    0    0 -3.4759589286e-19 -2.4506859014e-19 +1.8734965267e-16 5.1100000000e-04 5.1099893000e-04 0.0000e+00 1.0000e+00
       50  1    1    2    0    0 -1.4301540580e-02 -1.4770515458e-02 +2.2949802103e+00 2.2950777337e+00 4.9935713700e-03 0.0000e+00 0.0000e+00
       11  1    1    2    0    0 +9.5588996010e-03 +1.1426769568e-02 +2.6124142044e-01 2.6166636103e-01 5.1099893000e-04 0.0000e+00 1.0000e+00
<vert_displacement>
282.68565060249597
</vert_displacement>
</event>
<event>
 4   1200 +8.5212000e+10 1.22319600e-02 7.81665300e-03            nan
       50 -1    0    0    0    0 -1.0281001183e-02 +1.5222237839e-02 +1.1795243765e+01 1.1795259125e+01 4.9935713700e-03 0.0000e+00 0.0000e+00
       11 -1    0    0    0    0 -3.0240447482e-19 +4.4774558017e-19 +3.4694427449e-16 5.1100000000e-04 5.1099893000e-04 0.0000e+00 1.0000e+00
       50  1    1    2    0    0 -1.9417472126e-02 +2.1326857797e-02 +1.1671929875e+01 1.1671966579e+01 4.9935713700e-03 0.0000e+00 0.0000e+00
       11  1    1    2    0    0 +9.1364709438e-03 -6.1046199581e-03 +1.2331389014e-01 1.2380354643e-01 5.1099893000e-04 0.0000e+00 1.0000e+00
<vert_displacement>
85.191405305252601
</vert_displacement>
</event>
<event>
 4   1200 +8.5212000e+10 1.05518800e-02 7.81665300e-03            nan
       50 -1    0    0    0    0 -1.6732092255e-02 +1.9932464616e-02 +9.6992122743e+00 9.6992484732e+00 4.9935713700e-03 0.0000e+00 0.0000e+00
       11 -1    0    0    0    0 -4.7880917229e-20 +5.7039172026e-20 +2.7755475707e-17 5.1100000000e-04 5.1099893000e-04 0.0000e+00 1.0000e+00
       50  1    1    2    0    0 -1.9073749143e-02 +1.0801047642e-02 +9.6139237784e+00 9.6139500635e+00 4.9935713700e-03 0.0000e+00 0.0000e+00
       11  1    1    2    0    0 +2.3416568884e-03 +9.1314169740e-03 +8.5288495915e-02 8.5809409672e-02 5.1099893000e-04 0.0000e+00 1.0000e+00
<vert_displacement>
464.67179430158188
</vert_displacement>
</event>
<event>
 4   1200 +8.5212000e+10 1.57151900e-02 7.81665300e-03            nan
       50 -1    0    0    0    0 +1.1312600471e-02 +8.1698748981e-03 +1.2476221879e+01 1.2476230682e+01 4.9935713700e-03 0.0000e+00 0.0000e+00
       11 -1    0    0    0    0 +3.1458596241e-20 +2.2719161383e-20 +3.4694447819e-17 5.1100000000e-04 5.1099893000e-04 0.0000e+00 1.0000e+00
       50  1    1    2    0    0 +2.4776761569e-02 +1.3966961188e-02 +1.2255015935e+01 1.2255049957e+01 4.9935713700e-03 0.0000e+00 0.0000e+00
       11  1    1    2    0    0 -1.3464161098e-02 -5.7970862902e-03 +2.2120594481e-01 2.2169172511e-01 5.1099893000e-04 0.0000e+00 1.0000e+00
<vert_displacement>
257.81683358609035
</vert_displacement>
</event>
<event>
 4   1200 +8.5212000e+10 1.40041000e-02 7.81665300e-03            nan
       50 -1    0    0    0    0 -1.1482807112e-02 +2.9101395071e-03 +6.0532072309e+00 6.0532208815e+00 4.9935713700e-03 0.0000e+00 0.0000e+00
       11 -1    0    0    0    0 +1.1583361629e-18 -2.9356234913e-19 -6.1062149431e-16 5.1100000000e-04 5.1099893000e-04 0.0000e+00 1.0000e+00
       50  1    1    2    0    0 -1.1870040677e-02 +1.5891262139e-02 +5.8807595361e+00 5.8807951067e+00 4.9935713700e-03 0.0000e+00 0.0000e+00
       11  1    1    2    0    0 +3.8723356502e-04 -1.2981122632e-02 +1.7244769484e-01 1.7293677478e-01 5.1099893000e-04 0.0000e+00 1.0000e+00
<vert_displacement>
400.45230774275245
</vert_displacement>
</event>
<event>
 4   1200 +8.5212000e+10 6.91689400e-03 7.81665300e-03            nan
       50 -1    0    0    0    0 +8.1224491641e-02 +9.0329046262e-02 +3.5188870997e+01 3.5189081030e+01 4.9935713700e-03 0.0000e+00 0.0000e+00
       11 -1    0    0    0    0 -1.4863370526e-17 -1.6529424275e-17 -6.4392551735e-15 5.1100000000e-04 5.1099893000e-04 0.0000e+00 1.0000e+00
       50  1    1    2    0    0 +7.6872034431e-02 +9.2371887554e-02 +3.5166446491e+01 3.5166652181e+01 4.9935713700e-03 0.0000e+00 0.0000e+00
       11  1    1    2    0    0 +4.3524572102e-03 -2.0428412923e-03 +2.2424506097e-02 2.2939849126e-02 5.1099893000e-04 0.0000e+00 1.0000e+00
<vert_displacement>
463.76385462884195
</vert_displacement>
</event>
<event>
 4   1200 +8.5212000e+10 1.74100900e-02 7.81665300e-03            nan
       50 -1    0    0    0    0 -2.7212137597e-02 -1.7366089404e-02 +1.4145710831e+01 1.4145748546e+01 4.9935713700e-03 0.0000e+00 0.0000e+00
       11 -1    0    0    0    0 +6.5406826616e-19 +4.1740961900e-19 -3.4000491596e-16 5.1100000000e-04 5.1099893000e-04 0.0000e+00 1.0000e+00
       50  1    1    2    0    0 -1.0008352233e-02 -1.6480225632e-02 +1.3868087749e+01 1.3868102052e+01 4.9935713700e-03 0.0000e+00 0.0000e+00
       11  1    1    2    0    0 -1.7203785364e-02 -8.8586377241e-04 +2.7762308179e-01 2.7815749433e-01 5.1099893000e-04 0.0000e+00 1.0000e+00
<vert_displacement>
190.31617427558527
</vert_displacement>
</event>
<event>
 4   1200 +8.5212000e+10 7.03575600e-03 7.81665300e-03            nan
       50 -1    0    0    0    0 +1.6325752908e-02 -6.0814179011e-03 +5.6037982624e+00 5.6038275683e+00 4.9935713700e-03 0.0000e+00 0.0000e+00
       11 -1    0    0    0    0 -1.0916228935e-18 +4.0663453887e-19 -3.7469846004e-16 5.1100000000e-04 5.1099893000e-04 0.0000e+00 1.0000e+00
       50  1    1    2    0    0 +2.0728606886e-02 -8.1897934165e-03 +5.5796390666e+00 5.5796858153e+00 4.9935713700e-03 0.0000e+00 0.0000e+00
       11  1    1    2    0    0 -4.4028539782e-03 +2.1083755154e-03 +2.4159195802e-02 2.4652753035e-02 5.1099893000e-04 0.0000e+00 1.0000e+00
<vert_displacement>
345.33879156122646
</vert_displacement>
</event>
<event>
 4   1200 +8.5212000e+10 3.15883300e-02 7.81665300e-03            nan
       50 -1    0    0    0    0 -2.4694927424e-02 -2.5794182604e-03 +2.3252835097e+01 2.3252848890e+01 4.9935713700e-03 0.0000e+00 0.0000e+00
       11 -1    0    0    0    0 +3.2719360899e-18 +3.4175810897e-19 -3.0808671370e-15 5.1100000000e-04 5.1099893000e-04 0.0000e+00 1.0000e+00
       50  1    1    2    0    0 -4.1191309924e-02 +2.3314479233e-02 +2.2258272829e+01 2.2258323714e+01 4.9935713700e-03 0.0000e+00 0.0000e+00
       11  1    1    2    0    0 +1.6496382501e-02 -2.5893897494e-02 +9.9456226859e-01 9.9503617612e-01 5.1099893000e-04 0.0000e+00 1.0000e+00
<vert_displacement>
338.71905444289939
</vert_displacement>
</event>
<event>
 4   1200 +8.5212000e+10 3.18088000e-02 7.81665300e-03            nan
       50 -1    0    0    0    0 +1.2381585294e-02 -2.6891695063e-03 +8.8427574215e+00 8.8427679086e+00 4.9935713700e-03 0.0000e+00 0.0000e+00
       11 -1    0    0    0    0 -2.2346328548e-19 +4.8534225530e-20 -1.5959439596e-16 5.1100000000e-04 5.1099893000e-04 0.0000e+00 1.0000e+00
       50  1    1    2    0    0 +3.7074719806e-02 +1.4920548451e-02 +7.7388808512e+00 7.7389856521e+00 4.9935713700e-03 0.0000e+00 0.0000e+00
       11  1    1    2    0    0 -2.4693134511e-02 -1.7609717957e-02 +1.1038765702e+00 1.1042932565e+00 5.1099893000e-04 0.0000e+00 1.0000e+00
<vert_displacement>
165.86998740540403
</vert_displacement>
</event>
<event>
 4   1200 +8.5212000e+10 4.44900000e-02 7.81665300e-03            nan
       50 -1    0    0    0    0 -7.7194080791e-02 +1.5543829351e-02 +2.7678110211e+01 2.7678222673e+01 4.9935713700e-03 0.0000e+00 0.0000e+00
       11 -1    0    0    0    0 -4.6058841747e-18 +9.2744258223e-19 +1.6514500658e-15 5.1100000000e-04 5.1099893000e-04 0.0000e+00 1.0000e+00
       50  1    1    2    0    0 -2.7230496368e-02 +1.3463478791e-02 +2.5611377052e+01 2.5611395554e+01 4.9935713700e-03 0.0000e+00 0.0000e+00
       11  1    1    2    0    0 -4.9963584423e-02 +2.0803505598e-03 +2.0667331584e+00 2.0673381187e+00 5.1099893000e-04 0.0000e+00 1.0000e+00
<vert_displacement>
485.83006774661811
</vert_displacement>
</event>
<event>
 4   1200 +8.5212000e+10 4.07158300e-02 7.81665300e-03            nan
       50 -1    0    0    0    0 -3.9752569371e-02 +1.8958443442e-02 +1.1468253647e+01 1.1468339301e+01 4.9935713700e-03 0.0000e+00 0.0000e+00
       11 -1    0    0    0    0 -1.4912369238e-18 +7.1118751127e-19 +4.3020824967e-16 5.1100000000e-04 5.1099893000e-04 0.0000e+00 1.0000e+00
       50  1    1    2    0    0 -6.8876957790e-02 +3.4564485872e-02 +9.5482888515e+00 9.5486011367e+00 4.9935713700e-03 0.0000e+00 0.0000e+00
       11  1    1    2    0    0 +2.9124388418e-02 -1.5606042430e-02 +1.9199647951e+00 1.9202491645e+00 5.1099893000e-04 0.0000e+00 1.0000e+00
<vert_displacement>
289.35984412167403
</vert_displacement>
</event>
<event>
 4   1200 +8.5212000e+10 9.20820000e-03 7.81665300e-03            nan
       50 -1    0    0    0    0 -1.8973977393e-02 +5.5430733376e-03 +1.1919373768e+01 1.1919391204e+01 4.9935713700e-03 0.0000e+00 0.0000e+00
       11 -1    0    0    0    0 -9.2784167667e-19 +2.7106042940e-19 +5.8286628640e-16 5.1100000000e-04 5.1099893000e-04 0.0000e+00 1.0000e+00
       50  1    1    2    0    0 -1.1666194659e-02 +2.7207050230e-03 +1.1860526143e+01 1.1860533243e+01 4.9935713700e-03 0.0000e+00 0.0000e+00
       11  1    1    2    0    0 -7.3077827343e-03 +2.8223683147e-03 +5.8847624913e-02 5.9368960992e-02 5.1099893000e-04 0.0000e+00 1.0000e+00
<vert_displacement>
82.879701979222077
</vert_displacement>
</event>
<event>
 4   1200 +8.5212000e+10 1.05904400e-02 7.81665300e-03            nan
       50 -1    0    0    0    0 +4.1788248826e-02 -2.9509719820e-02 +1.7800382782e+01 1.7800456994e+01 4.9935713700e-03 0.0000e+00 0.0000e+00
       11 -1    0    0    0    0 -5.1475475459e-18 +3.6350574649e-18 -2.1926814183e-15 5.1100000000e-04 5.1099893000e-04 0.0000e+00 1.0000e+00
       50  1    1    2    0    0 +5.0419308784e-02 -2.6332691483e-02 +1.7714607101e+01 1.7714699128e+01 4.9935713700e-03 0.0000e+00 0.0000e+00
       11  1    1    2    0    0 -8.6310599572e-03 -3.1770283367e-03 +8.5775681109e-02 8.6268866311e-02 5.1099893000e-04 0.0000e+00 1.0000e+00
<vert_displacement>
417.94153794731022
</vert_displacement>
</event>
<event>
 4   1200 +8.5212000e+10 1.46006100e-02 7.81665300e-03            nan
       50 -1    0    0    0    0 -5.1240936834e-02 -1.4140653624e-02 +1.5296681164e+01 1.5296774339e+01 4.9935713700e-03 0.0000e+00 0.0000e+00
       11 -1    0    0    0    0 -1.6503110987e-18 -4.5542644339e-19 +4.9265849257e-16 5.1100000000e-04 5.1099893000e-04 0.0000e+00 1.0000e+00
       50  1    1    2    0    0 -6.2328759510e-02 -2.1113763428e-02 +1.5110163723e+01 1.5110307850e+01 4.9935713700e-03 0.0000e+00 0.0000e+00
       11  1    1    2    0    0 +1.1087822676e-02 +6.9731098039e-03 +1.8651744169e-01 1.8697748861e-01 5.1099893000e-04 0.0000e+00 1.0000e+00
<vert_displacement>
459.11476060239841
</vert_displacement>
</event>
<event>
 4   1200 +8.5212000e+10 1.03110600e-02 7.81665300e-03            nan
       50 -1    0    0    0    0 -1.1702803326e-02 +4.0096580425e-02 +3.2739311695e+01 3.2739338721e+01 4.9935713700e-03 0.0000e+00 0.0000e+00
       11 -1    0    0    0    0 +1.1260718667e-18 -3.8581893508e-18 -3.1502552685e-15 5.1100000000e-04 5.1099893000e-04 0.0000e+00 1.0000e+00
       50  1    1    2    0    0 -3.7818111110e-03 +4.4368176327e-02 +3.2659482861e+01 3.2659513599e+01 4.9935713700e-03 0.0000e+00 0.0000e+00
       11  1    1    2    0    0 -7.9209922154e-03 -4.2715959018e-03 +7.9828834303e-02 8.0336122357e-02 5.1099893000e-04 0.0000e+00 1.0000e+00
<vert_displacement>
438.07506451611596
</vert_displacement>
</event>
<event>
 4   1200 +8.5212000e+10 1.37268300e-02 7.81665300e-03            nan
       50 -1    0    0    0    0 -2.6743935576e-02 +9.6832246330e-03 +1.6565255435e+01 1.6565280606e+01 4.9935713700e-03 0.0000e+00 0.0000e+00
       11 -1    0    0    0    0 -2.0388636134e-18 +7.3821499863e-19 +1.2628768289e-15 5.1100000000e-04 5.1099893000e-04 0.0000e+00 1.0000e+00
       50  1    1    2    0    0 -3.0183418000e-02 +2.1827972340e-02 +1.6403689070e+01 1.6403732122e+01 4.9935713700e-03 0.0000e+00 0.0000e+00
       11  1    1    2    0    0 +3.4394824240e-03 -1.2144747707e-02 +1.6156636501e-01 1.6205948402e-01 5.1099893000e-04 0.0000e+00 1.0000e+00
<vert_displacement>
9.8645366853752687
</vert_displacement>
</event>
<event>
 4   1200 +8.5212000e+10 3.19438900e-02 7.81665300e-03            nan
       50 -1    0    0    0    0 +8.6639208505e-03 -8.1058599695e-03 +1.7100317360e+01 1.7100322205e+01 4.9935713700e-03 0.0000e+00 0.0000e+00
       11 -1    0    0    0    0 +1.0828072746e-18 -1.0130614410e-18 +2.1371788080e-15 5.1100000000e-04 5.1099893000e-04 0.0000e+00 1.0000e+00
       50  1    1    2    0    0 -2.3003746875e-02 -1.2677567273e-02 +1.6063272961e+01 1.6063295212e+01 4.9935713700e-03 0.0000e+00 0.0000e+00
       11  1    1    2    0    0 +3.1667667725e-02 +4.5717073039e-03 +1.0370443992e+00 1.0375379939e+00 5.1099893000e-04 0.0000e+00 1.0000e+00
<vert_displacement>
311.95367930701605
</vert_displacement>
</event>
<event>
 4   1200 +8.5212000e+10 9.28241100e-03 7.81665300e-03            nan
       50 -1    0    0    0    0 +6.4908946737e-02 +2.0526029413e-02 +2.6730932667e+01 2.6731019821e+01 4.9935713700e-03 0.0000e+00 0.0000e+00
       11 -1    0    0    0    0 -2.3251896181e-18 -7.3529017020e-19 -9.5756425339e-16 5.1100000000e-04 5.1099893000e-04 0.0000e+00 1.0000e+00
       50  1    1    2    0    0 +6.9877616724e-02 +2.6401852713e-02 +2.6670870360e+01 2.6670975434e+01 4.9935713700e-03 0.0000e+00 0.0000e+00
       11  1    1    2    0    0 -4.9686699871e-03 -5.8758233001e-03 +6.0062307456e-02 6.0555386860e-02 5.1099893000e-04 0.0000e+00 1.0000e+00
<vert_displacement>
354.32137714975715
</vert_displacement>
</event>
<event>
 4   1200 +8.5212000e+10 7.60474700e-03 7.81665300e-03            nan
       50 -1    0    0    0    0 +1.0513515006e-02 -6.4216347745e-03 +9.9681399330e+00 9.9681487966e+00 4.9935713700e-03 0.0000e+00 0.0000e+00
       11 -1    0    0    0    0 +6.0743780952e-19 -3.7102184747e-19 +5.7592775418e-16 5.1100000000e-04 5.1099893000e-04 0.0000e+00 1.0000e+00
       50  1    1    2    0    0 +1.0906185896e-02 -1.2120472485e-02 +9.9358410014e+00 9.9358556346e+00 4.9935713700e-03 0.0000e+00 0.0000e+00
       11  1    1    2    0    0 -3.9267089008e-04 +5.6988377107e-03 +3.2298931597e-02 3.2804161990e-02 5.1099893000e-04 0.0000e+00 1.0000e+00
<vert_displacement>
211.97975969899628
</vert_displacement>
</event>
<event>
 4   1200 +8.5212000e+10 9.71374600e-03 7.81665300e-03            nan
       50 -1    0    0    0    0 +1.6349321634e-02 +3.6830405967e-03 +1.3154799136e+01 1.3154810759e+01 4.9935713700e-03 0.0000e+00 0.0000e+00
       11 -1    0    0    0    0 +1.4401969351e-18 +3.2443571043e-19 +1.1587943416e-15 5.1100000000e-04 5.1099893000e-04 0.0000e+00 1.0000e+00
       50  1    1    2    0    0 +1.9103324643e-02 +1.1497305985e-02 +1.3086509002e+01 1.3086528948e+01 4.9935713700e-03 0.0000e+00 0.0000e+00
       11  1    1    2    0    0 -2.7540030089e-03 -7.8142653878e-03 +6.8290134606e-02 6.8792811256e-02 5.1099893000e-04 0.0000e+00 1.0000e+00
<vert_displacement>
336.52922999005079
</vert_displacement>
</event>
<event>
 4   1200 +8.5212000e+10 2.96260500e-02 7.81665300e-03            nan
       50 -1    0    0    0    0 -2.8110048707e-02 -2.4533527447e-02 +1.0523198499e+01 1.0523265827e+01 4.9935713700e-03 0.0000e+00 0.0000e+00
       11 -1    0    0    0    0 -2.3910632432e-18 -2.0868414821e-18 +8.9511168746e-16 5.1100000000e-04 5.1099893000e-04 0.0000e+00 1.0000e+00
       50  1    1    2    0    0 -2.0457777074e-02 -5.1136090821e-02 +9.6091287953e+00 9.6092879320e+00 4.9935713700e-03 0.0000e+00 0.0000e+00
       11  1    1    2    0    0 -7.6522716329e-03 +2.6602563374e-02 +9.1406970397e-01 9.1448889467e-01 5.1099893000e-04 0.0000e+00 1.0000e+00
<vert_displacement>
431.34084256604496
</vert_displacement>
</event>
<event>
 4   1200 +8.5212000e+10 2.46345000e-02 7.81665300e-03            nan
       50 -1    0    0    0    0 -1.1071878416e-02 -1.4991336759e-03 +1.5219825598e+01 1.5219830518e+01 4.9935713700e-03 0.0000e+00 0.0000e+00
       11 -1    0    0    0    0 -6.2592665653e-19 -8.4750544953e-20 +8.6042261224e-16 5.1100000000e-04 5.1099893000e-04 0.0000e+00 1.0000e+00
       50  1    1    2    0    0 -1.4932894530e-02 +2.2297404939e-02 +1.4627306033e+01 1.4627331503e+01 4.9935713700e-03 0.0000e+00 0.0000e+00
       11  1    1    2    0    0 +3.8610161132e-03 -2.3796538615e-02 +5.9251956503e-01 5.9301001573e-01 5.1099893000e-04 0.0000e+00 1.0000e+00
<vert_displacement>
400.16632133842887
</vert_displacement>
</event>
<event>
 4   1200 +8.5212000e+10 8.20231700e-03 7.81665300e-03            nan
       50 -1    0    0    0    0 +8.9652748910e-03 -6.9779293813e-03 +1.8402463995e+01 1.8402468179e+01 4.9935713700e-03 0.0000e+00 0.0000e+00
       11 -1    0    0    0    0 -1.3521902165e-19 +1.0524482468e-19 -2.7755570326e-16 5.1100000000e-04 5.1099893000e-04 0.0000e+00 1.0000e+00
       50  1    1    2    0    0 +9.1412565375e-03 -4.5805070716e-04 +1.8360940625e+01 1.8360943585e+01 4.9935713700e-03 0.0000e+00 0.0000e+00
       11  1    1    2    0    0 -1.7598164647e-04 -6.5198786741e-03 +4.1523370166e-02 4.2035594171e-02 5.1099893000e-04 0.0000e+00 1.0000e+00
<vert_displacement>
131.64086168217909
</vert_displacement>
</event>
<event>
 4   1200 +8.5212000e+10 8.45825700e-03 7.81665300e-03            nan
       50 -1    0    0    0    0 +2.6739053705e-03 -8.0223581890e-03 +4.0268074158e+00 4.0268193910e+00 4.9935713700e-03 0.0000e+00 0.0000e+00
       11 -1    0    0    0    0 +2.4881022453e-19 -7.4649041970e-19 +3.7469944461e-16 5.1100000000e-04 5.1099893000e-04 0.0000e+00 1.0000e+00
       50  1    1    2    0    0 +9.4481587254e-03 -8.4779514685e-03 +3.9806611266e+00 3.9806844994e+00 4.9935713700e-03 0.0000e+00 0.0000e+00
       11  1    1    2    0    0 -6.7742533549e-03 +4.5559327954e-04 +4.6146289159e-02 4.6645891532e-02 5.1099893000e-04 0.0000e+00 1.0000e+00
<vert_displacement>
102.15997870087645
</vert_displacement>
</event>
<event>
 4   1200 +8.5212000e+10 2.95127800e-02 7.81665300e-03            nan
       50 -1    0    0    0    0 +1.7792687860e-03 -1.6080001653e-02 +9.0561727744e+00 9.0561886016e+00 4.9935713700e-03 0.0000e+00 0.0000e+00
       11 -1    0    0    0    0 +1.8268008838e-19 -1.6509569247e-18 +9.2981029947e-16 5.1100000000e-04 5.1099893000e-04 0.0000e+00 1.0000e+00
       50  1    1    2    0    0 +2.9452631592e-02 -2.2821075733e-02 +8.1341279254e+00 8.1342147932e+00 4.9935713700e-03 0.0000e+00 0.0000e+00
       11  1    1    2    0    0 -2.7673362806e-02 +6.7410740798e-03 +9.2204484902e-01 9.2248480844e-01 5.1099893000e-04 0.0000e+00 1.0000e+00
<vert_displacement>
209.83540221461448
</vert_displacement>
</event>
<event>
 4   1200 +8.5212000e+10 1.25266700e-02 7.81665300e-03            nan
       50 -1    0    0    0    0 +2.3570396488e-02 -8.3567020043e-03 +6.9479030597e+00 6.9479498603e+00 4.9935713700e-03 0.0000e+00 0.0000e+00
       11 -1    0    0    0    0 -2.5658252200e-18 +9.0969351194e-19 -7.5633453625e-16 5.1100000000e-04 5.1099893000e-04 0.0000e+00 1.0000e+00
       50  1    1    2    0    0 +2.9349788583e-02 +1.4566077139e-03 +6.8162409867e+00 6.8163061593e+00 4.9935713700e-03 0.0000e+00 0.0000e+00
       11  1    1    2    0    0 -5.7793920953e-03 -9.8133097182e-03 +1.3166207293e-01 1.3215470098e-01 5.1099893000e-04 0.0000e+00 1.0000e+00
<vert_displacement>
223.50950778596160
</vert_displacement>
</event>
<event>
 4   1200 +8.5212000e+10 1.63781100e-02 7.81665300e-03            nan
       50 -1    0    0    0    0 -9.4062720776e-03 -3.9709386311e-03 +2.7434395543e+01 2.7434397898e+01 4.9935713700e-03 0.0000e+00 0.0000e+00
       11 -1    0    0    0    0 -1.6653686992e-19 -7.0304971495e-20 +4.8572253964e-16 5.1100000000e-04 5.1099893000e-04 0.0000e+00 1.0000e+00
       50  1    1    2    0    0 +4.9979822993e-03 +2.2436071401e-03 +2.7194223204e+01 2.7194224214e+01 4.9935713700e-03 0.0000e+00 0.0000e+00
       11  1    1    2    0    0 -1.4404254377e-02 -6.2145457712e-03 +2.4017233922e-01 2.4068468329e-01 5.1099893000e-04 0.0000e+00 1.0000e+00
<vert_displacement>
222.36599077950044
</vert_displacement>
</event>
<event>
 4   1200 +8.5212000e+10 1.06654000e-02 7.81665300e-03            nan
       50 -1    0    0    0    0 -3.6674821962e-02 -7.9070427488e-05 +2.2346561953e+01 2.2346592606e+01 4.9935713700e-03 0.0000e+00 0.0000e+00
       11 -1    0    0    0    0 -2.5509090759e-18 -5.4997259790e-21 +1.5543101412e-15 5.1100000000e-04 5.1099893000e-04 0.0000e+00 1.0000e+00
       50  1    1    2    0    0 -4.5514779722e-02 +2.7704392762e-03 +2.2259301173e+01 2.2259348438e+01 4.9935713700e-03 0.0000e+00 0.0000e+00
       11  1    1    2    0    0 +8.8399577606e-03 -2.8495097036e-03 +8.7260780629e-02 8.7755168022e-02 5.1099893000e-04 0.0000e+00 1.0000e+00
<vert_displacement>
37.121889815100822
</vert_displacement>
</event>
<event>
 4   1200 +8.5212000e+10 3.00444900e-02 7.81665300e-03            nan
       50 -1    0    0    0    0 +1.6482552770e-02 +5.5704169907e-03 +6.0653351543e+00 6.0653621635e+00 4.9935713700e-03 0.0000e+00 0.0000e+00
       11 -1    0    0    0    0 -5.2797840874e-19 -1.7843473276e-19 -1.9428822998e-16 5.1100000000e-04 5.1099893000e-04 0.0000e+00 1.0000e+00
       50  1    1    2    0    0 +2.1732665429e-02 -2.3888798139e-02 +5.0284708850e+00 5.0285770711e+00 4.9935713700e-03 0.0000e+00 0.0000e+00
       11  1    1    2    0    0 -5.2501126591e-03 +2.9459215129e-02 +1.0368642694e+00 1.0372960924e+00 5.1099893000e-04 0.0000e+00 1.0000e+00
<vert_displacement>
269.67508279514550
</vert_displacement>
</event>
<event>
 4   1200 +8.5212000e+10 8.44357100e-03 7.81665300e-03            nan
       50 -1    0    0    0    0 -1.9406524072e-02 -1.6160589232e-02 +1.4057150821e+01 1.4057174393e+01 4.9935713700e-03 0.0000e+00 0.0000e+00
       11 -1    0    0    0    0 +1.2453268431e-18 +1.0370334995e-18 -9.0205475179e-16 5.1100000000e-04 5.1099893000e-04 0.0000e+00 1.0000e+00
       50  1    1    2    0    0 -2.0690278184e-02 -9.4340799338e-03 +1.4011647264e+01 1.4011666606e+01 4.9935713700e-03 0.0000e+00 0.0000e+00
       11  1    1    2    0    0 +1.2837541111e-03 -6.7265092979e-03 +4.5503557107e-02 4.6018787264e-02 5.1099893000e-04 0.0000e+00 1.0000e+00
<vert_displacement>
98.295579035479378
</vert_displacement>
</event>
<event>
 4   1200 +8.5212000e+10 5.63707900e-03 7.81665300e-03            nan
       50 -1    0    0    0    0 -4.9677253521e-03 +3.1832113749e-02 +1.6223505071e+01 1.6223537829e+01 4.9935713700e-03 0.0000e+00 0.0000e+00
       11 -1    0    0    0    0 -4.2494456090e-21 +2.7229531910e-20 +1.3877760444e-17 5.1100000000e-04 5.1099893000e-04 0.0000e+00 1.0000e+00
       50  1    1    2    0    0 -7.2409714200e-03 +3.3108903738e-02 +1.6216805235e+01 1.6216841419e+01 4.9935713700e-03 0.0000e+00 0.0000e+00
       11  1    1    2    0    0 +2.2732460679e-03 -1.2767899888e-03 +6.6998356023e-03 7.2074098930e-03 5.1099893000e-04 0.0000e+00 1.0000e+00
<vert_displacement>
112.30615319112809
</vert_displacement>
</event>
<event>
 4   1200 +8.5212000e+10 3.59010400e-02 7.81665300e-03            nan
       50 -1    0    0    0    0 -2.8103101560e-03 +1.4748802910e-02 +6.1386815393e+00 6.1387019313e+00 4.9935713700e-03 0.0000e+00 0.0000e+00
       11 -1    0    0    0    0 -4.9873259147e-19 +2.6174010298e-18 +1.0894030845e-15 5.1100000000e-04 5.1099893000e-04 0.0000e+00 1.0000e+00
       50  1    1    2    0    0 -2.8621165455e-02 -1.2976324612e-02 +4.4172096758e+00 4.4173242819e+00 4.9935713700e-03 0.0000e+00 0.0000e+00
       11  1    1    2    0    0 +2.5810855299e-02 +2.7725127522e-02 +1.7214718635e+00 1.7218886494e+00 5.1099893000e-04 0.0000e+00 1.0000e+00
<vert_displacement>
201.12613396190207
</vert_displacement>
</event>
<event>
 4   1200 +8.5212000e+10 5.43102500e-03 7.81665300e-03            nan
       50 -1    0    0    0    0 -3.1719730574e-03 +1.6390183249e-03 +1.2912505628e+00 1.2912651546e+00 4.9935713700e-03 0.0000e+00 0.0000e+00
       11 -1    0    0    0    0 -1.7045413962e-20 +8.8076869929e-21 +6.9388673779e-18 5.1100000000e-04 5.1099893000e-04 0.0000e+00 1.0000e+00
       50  1    1    2    0    0 -3.1071034844e-03 +3.7681323138e-03 +1.2867682587e+00 1.2867872164e+00 4.9935713700e-03 0.0000e+00 0.0000e+00
       11  1    1    2    0    0 -6.4869572998e-05 -2.1291139889e-03 +4.4823040473e-03 4.9889381554e-03 5.1099893000e-04 0.0000e+00 1.0000e+00
<vert_displacement>
174.23666565601738
</vert_displacement>
</event>
<event>
 4   1200 +8.5212000e+10 5.87496300e-03 7.81665300e-03            nan
       50 -1    0    0    0    0 +5.6412528979e-03 +3.0915180932e-03 +3.6218211254e+00 3.6218302806e+00 4.9935713700e-03 0.0000e+00 0.0000e+00
       11 -1    0    0    0    0 -2.7019551937e-20 -1.4807248531e-20 -1.7347207398e-17 5.1100000000e-04 5.1099893000e-04 0.0000e+00 1.0000e+00
       50  1    1    2    0    0 +8.2849720605e-03 +1.4983918218e-03 +3.6124192460e+00 3.6124325088e+00 4.9935713700e-03 0.0000e+00 0.0000e+00
       11  1    1    2    0    0 -2.6437191626e-03 +1.5931262714e-03 +9.4018793975e-03 9.9087717926e-03 5.1099893000e-04 0.0000e+00 1.0000e+00
<vert_displacement>
436.46169007188576
</vert_displacement>
</event>
<event>
 4   1200 +8.5212000e+10 1.42842000e-02 7.81665300e-03            nan
       50 -1    0    0    0    0 -5.8327992711e-02 -3.8232966420e-02 +3.3049973933e+01 3.3050047894e+01 4.9935713700e-03 0.0000e+00 0.0000e+00
       11 -1    0    0    0    0 +3.0125224843e-18 +1.9746551463e-18 -1.7069640999e-15 5.1100000000e-04 5.1099893000e-04 0.0000e+00 1.0000e+00
       50  1    1    2    0    0 -6.3458193996e-02 -5.0255999210e-02 +3.2873760769e+01 3.2873860812e+01 4.9935713700e-03 0.0000e+00 0.0000e+00
       11  1    1    2    0    0 +5.1302012844e-03 +1.2023032791e-02 +1.7621316367e-01 1.7669808276e-01 5.1099893000e-04 0.0000e+00 1.0000e+00
<vert_displacement>
116.56878764990410
</vert_displacement>
</event>
<event>
 4   1200 +8.5212000e+10 8.55975600e-03 7.81665300e-03            nan
       50 -1    0    0    0    0 +1.5359222861e-02 +1.2471186542e-02 +1.4239049640e+01 1.4239064261e+01 4.9935713700e-03 0.0000e+00 0.0000e+00
       11 -1    0    0    0    0 +9.0565634934e-19 +7.3536333037e-19 +8.3960535189e-16 5.1100000000e-04 5.1099893000e-04 0.0000e+00 1.0000e+00
       50  1    1    2    0    0 +8.9021061094e-03 +9.7282116061e-03 +1.4191605638e+01 1.4191612643e+01 4.9935713700e-03 0.0000e+00 0.0000e+00
       11  1    1    2    0    0 +6.4571167521e-03 +2.7429749355e-03 +4.7444002042e-02 4.7962617922e-02 5.1099893000e-04 0.0000e+00 1.0000e+00
<vert_displacement>
16.252268893118586
</vert_displacement>
</event>
<event>
 4   1200 +8.5212000e+10 9.41303300e-03 7.81665300e-03            nan
       50 -1    0    0    0    0 -2.7629062127e-03 -2.9079010921e-02 +2.2365084427e+01 2.2365104059e+01 4.9935713700e-03 0.0000e+00 0.0000e+00
       11 -1    0    0    0    0 -1.7658454804e-19 -1.8585154926e-18 +1.4294109251e-15 5.1100000000e-04 5.1099893000e-04 0.0000e+00 1.0000e+00
       50  1    1    2    0    0 -8.3644910247e-03 -2.3322825706e-02 +2.2302616168e+01 2.2302630490e+01 4.9935713700e-03 0.0000e+00 0.0000e+00
       11  1    1    2    0    0 +5.6015848120e-03 -5.7561852154e-03 +6.2468258803e-02 6.2984568732e-02 5.1099893000e-04 0.0000e+00 1.0000e+00
<vert_displacement>
465.50161605372517
</vert_displacement>
</event>
<event>
 4   1200 +8.5212000e+10 2.01236500e-02 7.81665300e-03            nan
       50 -1    0    0    0    0 -1.0635458236e-02 +1.0342704110e-02 +6.2978223838e+00 6.2978418365e+00 4.9935713700e-03 0.0000e+00 0.0000e+00
       11 -1    0    0    0    0 +4.5700341734e-19 -4.4442383374e-19 -2.7061611144e-16 5.1100000000e-04 5.1099893000e-04 0.0000e+00 1.0000e+00
       50  1    1    2    0    0 -2.1848350369e-02 -5.7628151508e-03 +5.9008323205e+00 5.9008776949e+00 4.9935713700e-03 0.0000e+00 0.0000e+00
       11  1    1    2    0    0 +1.1212892133e-02 +1.6105519261e-02 +3.9699006329e-01 3.9747514157e-01 5.1099893000e-04 0.0000e+00 1.0000e+00
<vert_displacement>
285.52516046129722
</vert_displacement>
</event>
<event>
 4   1200 +8.5212000e+10 6.40734900e-03 7.81665300e-03            nan
       50 -1    0    0    0    0 -4.5959239067e-02 -2.1983558731e-02 +1.4367665233e+01 1.4367756426e+01 4.9935713700e-03 0.0000e+00 0.0000e+00
       11 -1    0    0    0    0 -2.9520641253e-18 -1.4120528623e-18 +9.2286708744e-16 5.1100000000e-04 5.1099893000e-04 0.0000e+00 1.0000e+00
       50  1    1    2    0    0 -4.7679890046e-02 -1.8356433521e-02 +1.4351875842e+01 1.4351967651e+01 4.9935713700e-03 0.0000e+00 0.0000e+00
       11  1    1    2    0    0 +1.7206509785e-03 -3.6271252101e-03 +1.5789391297e-02 1.6299775290e-02 5.1099893000e-04 0.0000e+00 1.0000e+00
<vert_displacement>
289.78446509180770
</vert_displacement>
</event>
<event>
 4   1200 +8.5212000e+10 1.01568300e-02 7.81665300e-03            nan
       50 -1    0    0    0    0 -1.9620689929e-02 +1.4782512128e-03 +1.3281560427e+01 1.3281575941e+01 4.9935713700e-03 0.0000e+00 0.0000e+00
       11 -1    0    0    0    0 +3.0752200485e-20 -2.3169153495e-21 -2.0816658868e-17 5.1100000000e-04 5.1099893000e-04 0.0000e+00 1.0000e+00
       50  1    1    2    0    0 -2.1229283644e-02 +1.0144878956e-02 +1.3204565360e+01 1.3204587267e+01 4.9935713700e-03 0.0000e+00 0.0000e+00
       11  1    1    2    0    0 +1.6085937156e-03 -8.6666277430e-03 +7.6995066370e-02 7.7499673389e-02 5.1099893000e-04 0.0000e+00 1.0000e+00
<vert_displacement>
134.75036507196140
</vert_displacement>
</event>
<event>
 4   1200 +8.5212000e+10 1.47540600e-02 7.81665300e-03            nan
       50 -1    0    0    0    0 -1.1448673385e-01 -8.9547418996e-02 +4.0430180722e+01 4.0430442294e+01 4.9935713700e-03 0.0000e+00 0.0000e+00
       11 -1    0    0    0    0 +1.1592815803e-17 +9.0674849314e-18 -4.0939209480e-15 5.1100000000e-04 5.1099893000e-04 0.0000e+00 1.0000e+00
       50  1    1    2    0    0 -1.2117845341e-01 -7.7274532322e-02 +4.0240699311e+01 4.0240956270e+01 4.9935713700e-03 0.0000e+00 0.0000e+00
       11  1    1    2    0    0 +6.6917195597e-03 -1.2272886674e-02 +1.8948141070e-01 1.8999702361e-01 5.1099893000e-04 0.0000e+00 1.0000e+00
<vert_displacement>
130.07599724708925
</vert_displacement>
</event>
<event>
 4   1200 +8.5212000e+10 2.45151100e-02 7.81665300e-03            nan
       50 -1    0    0    0    0 +2.2586475293e-02 -6.6435056345e-03 +7.7370386866e+00 7.7370761182e+00 4.9935713700e-03 0.0000e+00 0.0000e+00
       11 -1    0    0    0    0 -3.1802523585e-18 +9.3542813516e-19 -1.0894012993e-15 5.1100000000e-04 5.1099893000e-04 0.0000e+00 1.0000e+00
       50  1    1    2    0    0 +4.1280096620e-02 +6.3953614183e-03 +7.1246930518e+00 7.1248172584e+00 4.9935713700e-03 0.0000e+00 0.0000e+00
       11  1    1    2    0    0 -1.8693621327e-02 -1.3038867053e-02 +6.1234563479e-01 6.1276985981e-01 5.1099893000e-04 0.0000e+00 1.0000e+00
<vert_displacement>
76.053725619718023
</vert_displacement>
</event>
<event>
 4   1200 +8.5212000e+10 3.76972200e-02 7.81665300e-03            nan
       50 -1    0    0    0    0 -1.2388167541e-01 +1.0436115067e-01 +4.1844862690e+01 4.1845176501e+01 4.9935713700e-03 0.0000e+00 0.0000e+00
       11 -1    0    0    0    0 +1.2325460858e-18 -1.0383289324e-18 -4.1633051497e-16 5.1100000000e-04 5.1099893000e-04 0.0000e+00 1.0000e+00
       50  1    1    2    0    0 -1.3744080246e-01 +1.3371713797e-01 +4.0430828931e+01 4.0431283967e+01 4.9935713700e-03 0.0000e+00 0.0000e+00
       11  1    1    2    0    0 +1.3559127044e-02 -2.9355987300e-02 +1.4140337585e+00 1.4144035334e+00 5.1099893000e-04 0.0000e+00 1.0000e+00
<vert_displacement>
15.958456677446772
</vert_displacement>
</event>
<event>
 4   1200 +8.5212000e+10 1.52193300e-02 7.81665300e-03            nan
       50 -1    0    0    0    0 -2.5376560459e-02 +3.3264310904e-02 +2.1167002612e+01 2.1167044551e+01 4.9935713700e-03 0.0000e+00 0.0000e+00
       11 -1    0    0    0    0 -3.4273622490e-18 +4.4926830653e-18 +2.8588187038e-15 5.1100000000e-04 5.1099893000e-04 0.0000e+00 -1.0000e+00
       50  1    1    2    0    0 -1.3397396393e-02 +4.1249857934e-02 +2.0962783758e+01 2.0962829218e+01 4.9935713700e-03 0.0000e+00 0.0000e+00
       11  1    1    2    0    0 -1.1979164066e-02 -7.9855470308e-03 +2.0421885486e-01 2.0472633229e-01 5.1099893000e-04 0.0000e+00 -1.0000e+00
<vert_displacement>
19.797130976864636
</vert_displacement>
</event>
<event>
 4   1200 +8.5212000e+10 8.31396500e-03 7.81665300e-03            nan
       50 -1    0    0    0    0 +3.2318451007e-03 -5.0330533566e-03 +3.5569457773e+00 3.5569543116e+00 4.9935713700e-03 0.0000e+00 0.0000e+00
       11 -1    0    0    0    0 +9.1417834146e-20 -1.4236784953e-19 +1.0061381935e-16 5.1100000000e-04 5.1099893000e-04 0.0000e+00 1.0000e+00
       50  1    1    2    0    0 -3.4472288052e-03 -5.2967335277e-03 +3.5131674535e+00 3.5131766865e+00 4.9935713700e-03 0.0000e+00 0.0000e+00
       11  1    1    2    0    0 +6.6790739059e-03 +2.6368017108e-04 +4.3778323774e-02 4.4288625039e-02 5.1099893000e-04 0.0000e+00 1.0000e+00
<vert_displacement>
463.18179292101240
</vert_displacement>
</event>
<event>
 4   1200 +8.5212000e+10 2.43291600e-02 7.81665300e-03            nan
       50 -1    0    0    0    0 -1.2716628747e-02 -3.4058045472e-02 +4.7443258456e+01 4.7443272648e+01 4.9935713700e-03 0.0000e+00 0.0000e+00
       11 -1    0    0    0    0 +7.6627528628e-19 +2.0522607889e-18 -2.8588234491e-15 5.1100000000e-04 5.1099893000e-04 0.0000e+00 1.0000e+00
       50  1    1    2    0    0 -8.3018815811e-03 -1.0228793078e-02 +4.6881856183e+01 4.6881858300e+01 4.9935713700e-03 0.0000e+00 0.0000e+00
       11  1    1    2    0    0 -4.4147471661e-03 -2.3829252394e-02 +5.6140227355e-01 5.6192534836e-01 5.1099893000e-04 0.0000e+00 1.0000e+00
<vert_displacement>
402.97603517230459
</vert_displacement>
</event>
<event>
 4   1200 +8.5212000e+10 7.98090100e-03 7.81665300e-03            nan
       50 -1    0    0    0    0 +6.2173468622e-02 +4.1752343231e-02 +3.6703213101e+01 3.6703289848e+01 4.9935713700e-03 0.0000e+00 0.0000e+00
       11 -1    0    0    0    0 +4.5370927718e-18 +3.0468664348e-18 +2.6784074711e-15 5.1100000000e-04 5.1099893000e-04 0.0000e+00 1.0000e+00
       50  1    1    2    0    0 +5.6295743589e-02 +4.3936975200e-02 +3.6665255988e+01 3.6665325871e+01 4.9935713700e-03 0.0000e+00 0.0000e+00
       11  1    1    2    0    0 +5.8777250329e-03 -2.1846319694e-03 +3.7957113324e-02 3.8474976806e-02 5.1099893000e-04 0.0000e+00 1.0000e+00
<vert_displacement>
33.042395355838032
</vert_displacement>
</event>
<event>
 4   1200 +8.5212000e+10 8.11112700e-03 7.81665300e-03            nan
       50 -1    0    0    0    0 -4.0042198959e-03 -4.4334201751e-03 +3.4046637870e+00 3.4046726902e+00 4.9935713700e-03 0.0000e+00 0.0000e+00
       11 -1    0    0    0    0 +1.8769862982e-19 +2.0781748104e-19 -1.5959431411e-16 5.1100000000e-04 5.1099893000e-04 0.0000e+00 1.0000e+00
       50  1    1    2    0    0 +1.8754757924e-03 -6.9962918279e-03 +3.3642017300e+00 3.3642132337e+00 4.9935713700e-03 0.0000e+00 0.0000e+00
       11  1    1    2    0    0 -5.8796956883e-03 +2.5628716528e-03 +4.0462057004e-02 4.0970456543e-02 5.1099893000e-04 0.0000e+00 1.0000e+00
<vert_displacement>
426.51265952357062
</vert_displacement>
</event>
<event>
 4   1200 +8.5212000e+10 3.79295600e-02 7.81665300e-03            nan
       50 -1    0    0    0    0 -3.3375575550e-03 -1.1840128597e-02 +6.0583718009e+00 6.0583863480e+00 4.9935713700e-03 0.0000e+00 0.0000e+00
       11 -1    0    0    0    0 -6.8807328810e-20 -2.4409695058e-19 +1.2489983279e-16 5.1100000000e-04 5.1099893000e-04 0.0000e+00 1.0000e+00
       50  1    1    2    0    0 +9.9981916898e-03 -4.3223482950e-02 +3.9102821359e+00 3.9105369901e+00 4.9935713700e-03 0.0000e+00 0.0000e+00
       11  1    1    2    0    0 -1.3335749245e-02 +3.1383354353e-02 +2.1480896650e+00 2.1483603578e+00 5.1099893000e-04 0.0000e+00 1.0000e+00
<vert_displacement>
235.79374880062210
</vert_displacement>
</event>
<event>
 4   1200 +8.5212000e+10 2.98059600e-02 7.81665300e-03            nan
       50 -1    0    0    0    0 +1.5678840299e-02 -8.8698451973e-03 +4.6944839198e+00 4.6945211374e+00 4.9935713700e-03 0.0000e+00 0.0000e+00
       11 -1    0    0    0    0 -1.7380985366e-18 +9.8327839708e-19 -5.2041321141e-16 5.1100000000e-04 5.1099893000e-04 0.0000e+00 1.0000e+00
       50  1    1    2    0    0 +1.9836915644e-02 +2.1537616735e-02 +3.5868622704e+00 3.5869852599e+00 4.9935713700e-03 0.0000e+00 0.0000e+00
       11  1    1    2    0    0 -4.1580753451e-03 -3.0407461932e-02 +1.1076216494e+00 1.1080468775e+00 5.1099893000e-04 0.0000e+00 1.0000e+00
<vert_displacement>
349.36935620410441
</vert_displacement>
</event>
<event>
 4   1200 +8.5212000e+10 1.95396900e-02 7.81665300e-03            nan
       50 -1    0    0    0    0 +3.1059234075e-02 +9.7294049023e-03 +1.1058941846e+01 1.1058990868e+01 4.9935713700e-03 0.0000e+00 0.0000e+00
       11 -1    0    0    0    0 +1.4810820755e-18 +4.6395372054e-19 +5.2735365279e-16 5.1100000000e-04 5.1099893000e-04 0.0000e+00 1.0000e+00
       50  1    1    2    0    0 +1.1466987771e-02 +1.2833213097e-02 +1.0697984297e+01 1.0697999305e+01 4.9935713700e-03 0.0000e+00 0.0000e+00
       11  1    1    2    0    0 +1.9592246303e-02 -3.1038081943e-03 +3.6095754933e-01 3.6150256331e-01 5.1099893000e-04 0.0000e+00 1.0000e+00
<vert_displacement>
302.31508410896225
</vert_displacement>
</event>
<event>
 4   1200 +8.5212000e+10 1.26230000e-02 7.81665300e-03            nan
       50 -1    0    0    0    0 -1.1457449399e-01 +1.1866330159e-01 +5.1896076948e+01 5.1896339329e+01 4.9935713700e-03 0.0000e+00 0.0000e+00
       11 -1    0    0    0    0 +5.8826457588e-18 -6.0925791030e-18 -2.6645217999e-15 5.1100000000e-04 5.1099893000e-04 0.0000e+00 1.0000e+00
       50  1    1    2    0    0 -1.1944242852e-01 +1.0797969661e-01 +5.1764242507e+01 5.1764493172e+01 4.9935713700e-03 0.0000e+00 0.0000e+00
       11  1    1    2    0    0 +4.8679345270e-03 +1.0683604981e-02 +1.3183444031e-01 1.3235715687e-01 5.1099893000e-04 0.0000e+00 1.0000e+00
<vert_displacement>
466.22622077319932
</vert_displacement>
</event>
<event>
 4   1200 +8.5212000e+10 8.92572100e-03 7.81665300e-03            nan
       50 -1    0    0    0    0 -1.8121309597e-02 -5.1933582105e-03 +8.6729001165e+00 8.6729220404e+00 4.9935713700e-03 0.0000e+00 0.0000e+00
       11 -1    0    0    0    0 +1.1598569889e-18 +3.3240162827e-19 -5.5511020108e-16 5.1100000000e-04 5.1099893000e-04 0.0000e+00 1.0000e+00
       50  1    1    2    0    0 -2.3289184864e-02 -1.0342695296e-02 +8.6189925696e+00 8.6190316862e+00 4.9935713700e-03 0.0000e+00 0.0000e+00
       11  1    1    2    0    0 +5.1678752667e-03 +5.1493370857e-03 +5.3907546850e-02 5.4401354160e-02 5.1099893000e-04 0.0000e+00 1.0000e+00
<vert_displacement>
6.5594083970242201
</vert_displacement>
</event>
<event>
 4   1200 +8.5212000e+10 5.29666300e-03 7.81665300e-03            nan
       50 -1    0    0    0    0 +2.5422664724e-02 +3.4022396459e-02 +1.8031061788e+01 1.8031112500e+01 4.9935713700e-03 0.0000e+00 0.0000e+00
       11 -1    0    0    0    0 -1.4088063576e-18 -1.8853636688e-18 -9.9919795028e-16 5.1100000000e-04 5.1099893000e-04 0.0000e+00 1.0000e+00
       50  1    1    2    0    0 +2.4844825724e-02 +3.5686946071e-02 +1.8028007109e+01 1.8028060241e+01 4.9935713700e-03 0.0000e+00 0.0000e+00
       11  1    1    2    0    0 +5.7783899930e-04 -1.6645496121e-03 +3.0546796391e-03 3.5632584700e-03 5.1099893000e-04 0.0000e+00 1.0000e+00
<vert_displacement>
492.02384946547363
</vert_displacement>
</event>
<event>
 4   1200 +8.5212000e+10 1.80122700e-02 7.81665300e-03            nan
       50 -1    0    0    0    0 +2.5533420411e-03 +4.3101123853e-02 +2.1505850129e+01 2.1505894051e+01 4.9935713700e-03 0.0000e+00 0.0000e+00
       11 -1    0    0    0    0 -4.7782596605e-20 -8.0658352117e-19 -4.0245503533e-16 5.1100000000e-04 5.1099893000e-04 0.0000e+00 1.0000e+00
       50  1    1    2    0    0 -4.7335725245e-03 +5.8219197053e-02 +2.1208643037e+01 2.1208724061e+01 4.9935713700e-03 0.0000e+00 0.0000e+00
       11  1    1    2    0    0 +7.2869145657e-03 -1.5118073200e-02 +2.9720709221e-01 2.9768099039e-01 5.1099893000e-04 0.0000e+00 1.0000e+00
<vert_displacement>
200.96347004331773
</vert_displacement>
</event>
<event>
 4   1200 +8.5212000e+10 4.11535600e-02 7.81665300e-03            nan
       50 -1    0    0    0    0 +2.2554858051e-02 +2.7293484469e-02 +1.1248745632e+01 1.1248802465e+01 4.9935713700e-03 0.0000e+00 0.0000e+00
       11 -1    0    0    0    0 -1.6695727349e-19 -2.0203389179e-19 -8.3266314362e-17 5.1100000000e-04 5.1099893000e-04 0.0000e+00 1.0000e+00
       50  1    1    2    0    0 +3.4465263931e-02 +6.0114786770e-02 +9.2653885487e+00 9.2656490078e+00 4.9935713700e-03 0.0000e+00 0.0000e+00
       11  1    1    2    0    0 -1.1910405880e-02 -3.2821302301e-02 +1.9833570833e+00 1.9836644567e+00 5.1099893000e-04 0.0000e+00 1.0000e+00
<vert_displacement>
434.75622730765673
</vert_displacement>
</event>
<event>
 4   1200 +8.5212000e+10 9.26940200e-03 7.81665300e-03            nan
       50 -1    0    0    0    0 +3.8171473011e-03 +5.9512493231e-03 +6.6551864675e+00 6.6551920965e+00 4.9935713700e-03 0.0000e+00 0.0000e+00
       11 -1    0    0    0    0 +7.9597364614e-21 +1.2409889504e-20 +1.3877779976e-17 5.1100000000e-04 5.1099893000e-04 0.0000e+00 1.0000e+00
       50  1    1    2    0    0 +1.0155550766e-02 +1.3839019860e-03 +6.5949620699e+00 6.5949719249e+00 4.9935713700e-03 0.0000e+00 0.0000e+00
       11  1    1    2    0    0 -6.3384034650e-03 +4.5673473371e-03 +6.0224397596e-02 6.0731171616e-02 5.1099893000e-04 0.0000e+00 1.0000e+00
<vert_displacement>
189.62501259280396
</vert_displacement>
</event>
<event>
 4   1200 +8.5212000e+10 2.22739000e-02 7.81665300e-03            nan
       50 -1    0    0    0    0 +5.5755456573e-02 +3.8269788984e-02 +3.1872184023e+01 3.1872256158e+01 4.9935713700e-03 0.0000e+00 0.0000e+00
       11 -1    0    0    0    0 -2.6461917764e-18 -1.8163101357e-18 -1.5126754661e-15 5.1100000000e-04 5.1099893000e-04 0.0000e+00 1.0000e+00
       50  1    1    2    0    0 +3.4720499570e-02 +4.5612871646e-02 +3.1404280500e+01 3.1404333215e+01 4.9935713700e-03 0.0000e+00 0.0000e+00
       11  1    1    2    0    0 +2.1034957003e-02 -7.3430826617e-03 +4.6790352320e-01 4.6843394243e-01 5.1099893000e-04 0.0000e+00 1.0000e+00
<vert_displacement>
413.05971736913517
</vert_displacement>
</event>
<event>
 4   1200 +8.5212000e+10 6.18689900e-03 7.81665300e-03            nan
       50 -1    0    0    0    0 +2.1123671942e-02 +1.9805819524e-03 +1.6254030743e+01 1.6254045357e+01 4.9935713700e-03 0.0000e+00 0.0000e+00
       11 -1    0    0    0    0 -1.6231950871e-19 -1.5219280548e-20 -1.2489998387e-16 5.1100000000e-04 5.1099893000e-04 0.0000e+00 1.0000e+00
       50  1    1    2    0    0 +1.8099451104e-02 +4.0522604984e-03 +1.6240968725e+01 1.6240980083e+01 4.9935713700e-03 0.0000e+00 0.0000e+00
       11  1    1    2    0    0 +3.0242208383e-03 -2.0716785460e-03 +1.3062018282e-02 1.3576273612e-02 5.1099893000e-04 0.0000e+00 1.0000e+00
<vert_displacement>
284.18451915375891
</vert_displacement>
</event>
<event>
 4   1200 +8.5212000e+10 1.11884300e-02 7.81665300e-03            nan
       50 -1    0    0    0    0 +4.4208061260e-03 +1.2695007184e-03 +1.4387717706e+00 1.4387877879e+00 4.9935713700e-03 0.0000e+00 0.0000e+00
       11 -1    0    0    0    0 -4.5839096517e-19 -1.3163383396e-19 -1.4918545663e-16 5.1100000000e-04 5.1099893000e-04 0.0000e+00 1.0000e+00
       50  1    1    2    0    0 +1.4092951045e-02 +1.7077615592e-03 +1.3326668474e+00 1.3327518109e+00 4.9935713700e-03 0.0000e+00 0.0000e+00
       11  1    1    2    0    0 -9.6721449189e-03 -4.3826084089e-04 +1.0610492321e-01 1.0654697701e-01 5.1099893000e-04 0.0000e+00 1.0000e+00
<vert_displacement>
93.321472418071906
</vert_displacement>
</event>
<event>
 4   1200 +8.5212000e+10 1.32937200e-02 7.81665300e-03            nan
       50 -1    0    0    0    0 -6.6673114172e-02 +2.7554998673e-03 +2.7026058609e+01 2.7026141452e+01 4.9935713700e-03 0.0000e+00 0.0000e+00
       11 -1    0    0    0    0 -2.2938327450e-18 +9.4800668952e-20 +9.2980894886e-16 5.1100000000e-04 5.1099893000e-04 0.0000e+00 1.0000e+00
       50  1    1    2    0    0 -6.2799488861e-02 +1.4551325483e-02 +2.6876717747e+01 2.6876795518e+01 4.9935713700e-03 0.0000e+00 0.0000e+00
       11  1    1    2    0    0 -3.8736253108e-03 -1.1795825616e-02 +1.4934086195e-01 1.4985693392e-01 5.1099893000e-04 0.0000e+00 1.0000e+00
<vert_displacement>
427.04229588297261
</vert_displacement>
</event>
<event>
 4   1200 +8.5212000e+10 1.61154300e-02 7.81665300e-03            nan
       50 -1    0    0    0    0 -9.4547656386e-03 -2.5516618713e-03 +3.1860413491e+00 3.1860603129e+00 4.9935713700e-03 0.0000e+00 0.0000e+00
       11 -1    0    0    0    0 -4.1182959385e-20 -1.1114499420e-20 +1.3877722251e-17 5.1100000000e-04 5.1099893000e-04 0.0000e+00 1.0000e+00
       50  1    1    2    0    0 -1.3419114027e-02 +1.2230230659e-02 +2.9366104130e+00 2.9366707858e+00 4.9935713700e-03 0.0000e+00 0.0000e+00
       11  1    1    2    0    0 +3.9643483880e-03 -1.4781892531e-02 +2.4943093614e-01 2.4990052707e-01 5.1099893000e-04 0.0000e+00 1.0000e+00
<vert_displacement>
404.05973930200662
</vert_displacement>
</event>
<event>
 4   1200 +8.5212000e+10 9.85973600e-03 7.81665300e-03            nan
       50 -1    0    0    0    0 +9.2004417080e-04 +1.7064242716e-02 +2.3252056822e+01 2.3252063638e+01 4.9935713700e-03 0.0000e+00 0.0000e+00
       11 -1    0    0    0    0 -7.6876829418e-21 -1.4258498864e-19 -1.9428897684e-16 5.1100000000e-04 5.1099893000e-04 0.0000e+00 1.0000e+00
       50  1    1    2    0    0 -6.7958594585e-04 +2.5362554936e-02 +2.3181109825e+01 2.3181124247e+01 4.9935713700e-03 0.0000e+00 0.0000e+00
       11  1    1    2    0    0 +1.5996301166e-03 -8.2983122191e-03 +7.0946996520e-02 7.1450390043e-02 5.1099893000e-04 0.0000e+00 1.0000e+00
<vert_displacement>
48.270581288208689
</vert_displacement>
</event>
<event>
 4   1200 +8.5212000e+10 5.00615500e-03 7.81665300e-03            nan
       50 -1    0    0    0    0 +1.8680250098e-04 +2.8134719870e-02 +1.7191134831e+01 1.7191158580e+01 4.9935713700e-03 0.0000e+00 0.0000e+00
       11 -1    0    0    0    0 +1.3571889359e-20 +2.0440909688e-18 +1.2489992300e-15 5.1100000000e-04 5.1099893000e-04 0.0000e+00 -1.0000e+00
       50  1    1    2    0    0 -1.1218285183e-04 +2.7943610968e-02 +1.7191012015e+01 1.7191035452e+01 4.9935713700e-03 0.0000e+00 0.0000e+00
       11  1    1    2    0    0 +2.9898535281e-04 +1.9110890183e-04 +1.2281597621e-04 6.3412816056e-04 5.1099893000e-04 0.0000e+00 -1.0000e+00
<vert_displacement>
46.044780140007639
</vert_displacement>
</event>
<event>
 4   1200 +8.5212000e+10 4.28338900e-02 7.81665300e-03            nan
       50 -1    0    0    0    0 +2.0896270170e-02 -2.1243897007e-03 +8.6416874385e+00 8.6417144067e+00 4.9935713700e-03 0.0000e+00 0.0000e+00
       11 -1    0    0    0    0 +9.5638782858e-19 -9.7229813569e-20 +3.9551578426e-16 5.1100000000e-04 5.1099893000e-04 0.0000e+00 1.0000e+00
       50  1    1    2    0    0 -2.7467852303e-02 -5.6423539684e-03 +6.1508023419e+00 6.1508682886e+00 4.9935713700e-03 0.0000e+00 0.0000e+00
       11  1    1    2    0    0 +4.8364122473e-02 +3.5179642677e-03 +2.4908850966e+00 2.4913571181e+00 5.1099893000e-04 0.0000e+00 1.0000e+00
<vert_displacement>
2.5656711190937584
</vert_displacement>
</event>
<event>
 4   1200 +8.5212000e+10 1.62914300e-02 7.81665300e-03            nan
       50 -1    0    0    0    0 +2.5125801186e-02 +1.2896062361e-02 +8.9299726007e+00 8.9300186562e+00 4.9935713700e-03 0.0000e+00 0.0000e+00
       11 -1    0    0    0    0 -6.0522876628e-19 -3.1063956349e-19 -2.1510463527e-16 5.1100000000e-04 5.1099893000e-04 0.0000e+00 1.0000e+00
       50  1    1    2    0    0 +3.6248792009e-02 +2.4893842372e-03 +8.6880737926e+00 8.6881512034e+00 4.9935713700e-03 0.0000e+00 0.0000e+00
       11  1    1    2    0    0 -1.1122990823e-02 +1.0406678124e-02 +2.4189880811e-01 2.4237845276e-01 5.1099893000e-04 0.0000e+00 1.0000e+00
<vert_displacement>
20.512396607332956
</vert_displacement>
</event>
<event>
 4   1200 +8.5212000e+10 1.65342200e-02 7.81665300e-03            nan
       50 -1    0    0    0    0 +6.3806978793e-03 -4.2744614412e-03 +2.0748045624e+00 2.0748247860e+00 4.9935713700e-03 0.0000e+00 0.0000e+00
       11 -1    0    0    0    0 -9.6026427708e-20 +6.4328584481e-20 -3.1224808648e-17 5.1100000000e-04 5.1099893000e-04 0.0000e+00 1.0000e+00
       50  1    1    2    0    0 +1.6078752613e-02 -1.5390797343e-02 +1.7928448067e+00 1.7929899162e+00 4.9935713700e-03 0.0000e+00 0.0000e+00
       11  1    1    2    0    0 -9.6980547341e-03 +1.1116335901e-02 +2.8195975577e-01 2.8234586978e-01 5.1099893000e-04 0.0000e+00 1.0000e+00
<vert_displacement>
448.19599480806528
</vert_displacement>
</event>
<event>
 4   1200 +8.5212000e+10 2.57878200e-02 7.81665300e-03            nan
       50 -1    0    0    0    0 -3.5863883460e-02 +4.1656430301e-02 +1.6147994241e+01 1.6148088568e+01 4.9935713700e-03 0.0000e+00 0.0000e+00
       11 -1    0    0    0    0 -1.2328676210e-19 +1.4319939496e-19 +5.5510829622e-17 5.1100000000e-04 5.1099893000e-04 0.0000e+00 1.0000e+00
       50  1    1    2    0    0 -9.2785897249e-03 +4.2849241198e-02 +1.5495304729e+01 1.5495367557e+01 4.9935713700e-03 0.0000e+00 0.0000e+00
       11  1    1    2    0    0 -2.6585293735e-02 -1.1928108974e-03 +6.5268951198e-01 6.5323201147e-01 5.1099893000e-04 0.0000e+00 1.0000e+00
<vert_displacement>
149.23989809638547
</vert_displacement>
</event>
<event>
 4   1200 +8.5212000e+10 3.51643400e-02 7.81665300e-03            nan
       50 -1    0    0    0    0 +3.8757019232e-02 +1.0941588112e-02 +1.5165110529e+01 1.5165164823e+01 4.9935713700e-03 0.0000e+00 0.0000e+00
       11 -1    0    0    0    0 -2.5890853070e-18 -7.3093095335e-19 -1.0130749379e-15 5.1100000000e-04 5.1099893000e-04 0.0000e+00 1.0000e+00
       50  1    1    2    0    0 +3.6117377184e-02 +4.4807548478e-02 +1.3868502918e+01 1.3868623230e+01 4.9935713700e-03 0.0000e+00 0.0000e+00
       11  1    1    2    0    0 +2.6396420477e-03 -3.3865960366e-02 +1.2966076110e+00 1.2970525930e+00 5.1099893000e-04 0.0000e+00 1.0000e+00
<vert_displacement>
231.37589915533385
</vert_displacement>
</event>
<event>
 4   1200 +8.5212000e+10 6.44651600e-03 7.81665300e-03            nan
       50 -1    0    0    0    0 -2.2319547767e-02 +1.6659857603e-02 +1.0263825512e+01 1.0263864515e+01 4.9935713700e-03 0.0000e+00 0.0000e+00
       11 -1    0    0    0    0 -1.6598065109e-19 +1.2389202689e-19 +7.6327551926e-17 5.1100000000e-04 5.1099893000e-04 0.0000e+00 1.0000e+00
       50  1    1    2    0    0 -2.6050850140e-02 +1.5073434583e-02 +1.0247529183e+01 1.0247574598e+01 4.9935713700e-03 0.0000e+00 0.0000e+00
       11  1    1    2    0    0 +3.7313023731e-03 +1.5864230204e-03 +1.6296328721e-02 1.6800916794e-02 5.1099893000e-04 0.0000e+00 1.0000e+00
<vert_displacement>
152.78803930008038
</vert_displacement>
</event>
<event>
 4   1200 +8.5212000e+10 3.16829000e-02 7.81665300e-03            nan
       50 -1    0    0    0    0 -2.8990385944e-02 -1.4410345205e-02 +1.8055357618e+01 1.8055387333e+01 4.9935713700e-03 0.0000e+00 0.0000e+00
       11 -1    0    0    0    0 +3.2532714559e-18 +1.6171141984e-18 -2.0261537628e-15 5.1100000000e-04 5.1099893000e-04 0.0000e+00 1.0000e+00
       50  1    1    2    0    0 -1.7502305868e-03 +4.3710694470e-03 +1.7040457865e+01 1.7040459247e+01 4.9935713700e-03 0.0000e+00 0.0000e+00
       11  1    1    2    0    0 -2.7240155357e-02 -1.8781414652e-02 +1.0148997537e+00 1.0154390867e+00 5.1099893000e-04 0.0000e+00 1.0000e+00
<vert_displacement>
1.8106985375293150
</vert_displacement>
</event>
<event>
 4   1200 +8.5212000e+10 1.31041000e-02 7.81665300e-03            nan
       50 -1    0    0    0    0 -1.5146720080e-02 -1.4749252923e-02 +6.6299101903e+00 6.6299457789e+00 4.9935713700e-03 0.0000e+00 0.0000e+00
       11 -1    0    0    0    0 +1.1730883259e-18 +1.1423051544e-18 -5.1347553826e-16 5.1100000000e-04 5.1099893000e-04 0.0000e+00 1.0000e+00
       50  1    1    2    0    0 -5.5305891495e-03 -2.2210498554e-02 +6.4830148704e+00 6.4830571986e+00 4.9935713700e-03 0.0000e+00 0.0000e+00
       11  1    1    2    0    0 -9.6161309308e-03 +7.4612456315e-03 +1.4689531983e-01 1.4739958029e-01 5.1099893000e-04 0.0000e+00 1.0000e+00
<vert_displacement>
144.77655883321884
</vert_displacement>
</event>
<event>
 4   1200 +8.5212000e+10 5.98456500e-02 7.81665300e-03            nan
       50 -1    0    0    0    0 +4.6693538550e-02 -5.2480049047e-02 +2.4946130541e+01 2.4946229942e+01 4.9935713700e-03 0.0000e+00 0.0000e+00
       11 -1    0    0    0    0 +1.5585594324e-19 -1.7517043684e-19 +8.3266396728e-17 5.1100000000e-04 5.1099893000e-04 0.0000e+00 1.0000e+00
       50  1    1    2    0    0 +4.9574066664e-02 -1.0235042037e-01 +2.0764261836e+01 2.0764573864e+01 4.9935713700e-03 0.0000e+00 0.0000e+00
       11  1    1    2    0    0 -2.8805281144e-03 +4.9870371321e-02 +4.1818687041e+00 4.1821670783e+00 5.1099893000e-04 0.0000e+00 1.0000e+00
<vert_displacement>
437.50975137476530
</vert_displacement>
</event>
<event>
 4   1200 +8.5212000e+10 1.04844800e-02 7.81665300e-03            nan
       50 -1    0    0    0    0 +2.4650066672e-02 +8.1116197135e-03 +8.1409357036e+00 8.1409785953e+00 4.9935713700e-03 0.0000e+00 0.0000e+00
       11 -1    0    0    0    0 -2.3531512194e-18 -7.7435359805e-19 -7.7715216889e-16 5.1100000000e-04 5.1099893000e-04 0.0000e+00 1.0000e+00
       50  1    1    2    0    0 +3.3596662458e-02 +7.4545647223e-03 +8.0568744532e+00 8.0569494970e+00 4.9935713700e-03 0.0000e+00 0.0000e+00
       11  1    1    2    0    0 -8.9465957860e-03 +6.5705499123e-04 +8.4061250366e-02 8.4540098359e-02 5.1099893000e-04 0.0000e+00 1.0000e+00
<vert_displacement>
495.37955072634918
</vert_displacement>
</event>
<event>
 4   1200 +8.5212000e+10 2.03270000e-02 7.81665300e-03            nan
       50 -1    0    0    0    0 +3.2156896023e-03 +2.1644750436e-02 +1.1714419077e+01 1.1714440579e+01 4.9935713700e-03 0.0000e+00 0.0000e+00
       11 -1    0    0    0    0 -1.5047693806e-19 -1.0128576366e-18 -5.4817166203e-16 5.1100000000e-04 5.1099893000e-04 0.0000e+00 1.0000e+00
       50  1    1    2    0    0 -1.6315955255e-03 +1.7927712665e-03 +1.1321325765e+01 1.1321327126e+01 4.9935713700e-03 0.0000e+00 0.0000e+00
       11  1    1    2    0    0 +4.8472851278e-03 +1.9851979169e-02 +3.9309331161e-01 3.9362445300e-01 5.1099893000e-04 0.0000e+00 1.0000e+00
<vert_displacement>
369.77036735165910
</vert_displacement>
</event>
<event>
 4   1200 +8.5212000e+10 1.09801600e-02 7.81665300e-03            nan
       50 -1    0    0    0    0 +1.7519700707e-04 -3.1359043305e-03 +3.1847194629e+00 3.1847249266e+00 4.9935713700e-03 0.0000e+00 0.0000e+00
       11 -1    0    0    0    0 -1.5268821851e-20 +2.7330127019e-19 -2.7755562118e-16 5.1100000000e-04 5.1099893000e-04 0.0000e+00 1.0000e+00
       50  1    1    2    0    0 +1.2323924638e-03 -1.2761917651e-02 +3.0881769203e+00 3.0882075727e+00 4.9935713700e-03 0.0000e+00 0.0000e+00
       11  1    1    2    0    0 -1.0571954567e-03 +9.6260133207e-03 +9.6542542675e-02 9.7028353901e-02 5.1099893000e-04 0.0000e+00 1.0000e+00
<vert_displacement>
322.99710126331854
</vert_displacement>
</event>
<event>
 4   1200 +8.5212000e+10 8.38993500e-03 7.81665300e-03            nan
       50 -1    0    0    0    0 +1.0429884683e-02 -3.1972139204e-03 +3.4998895124e+00 3.4999100759e+00 4.9935713700e-03 0.0000e+00 0.0000e+00
       11 -1    0    0    0    0 -2.0678227538e-20 +6.3387773633e-21 -6.9388601975e-18 5.1100000000e-04 5.1099893000e-04 0.0000e+00 1.0000e+00
       50  1    1    2    0    0 +1.2487516813e-02 -9.5318199040e-03 +3.4548097421e+00 3.4548490681e+00 4.9935713700e-03 0.0000e+00 0.0000e+00
       11  1    1    2    0    0 -2.0576321297e-03 +6.3346059836e-03 +4.5079770281e-02 4.5572007761e-02 5.1099893000e-04 0.0000e+00 1.0000e+00
<vert_displacement>
357.88647334005987
</vert_displacement>
</event>
<event>
 4   1200 +8.5212000e+10 1.81667100e-02 7.81665300e-03            nan
       50 -1    0    0    0    0 -1.2147043385e-02 -3.4777506148e-02 +2.5524654450e+01 2.5524681521e+01 4.9935713700e-03 0.0000e+00 0.0000e+00
       11 -1    0    0    0    0 -5.7457900698e-19 -1.6450443383e-18 +1.2073662819e-15 5.1100000000e-04 5.1099893000e-04 0.0000e+00 1.0000e+00
       50  1    1    2    0    0 -2.9044376242e-02 -3.8199174798e-02 +2.5222530213e+01 2.5222576356e+01 4.9935713700e-03 0.0000e+00 0.0000e+00
       11  1    1    2    0    0 +1.6897332857e-02 +3.4216686494e-03 +3.0212423720e-01 3.0261616530e-01 5.1099893000e-04 0.0000e+00 1.0000e+00
<vert_displacement>
289.63801626736023
</vert_displacement>
</event>
<event>
 4   1200 +8.5212000e+10 1.32105600e-02 7.81665300e-03            nan
       50 -1    0    0    0    0 -9.7944893001e-03 +3.3798035724e-03 +8.3909045124e+00 8.3909123954e+00 4.9935713700e-03 0.0000e+00 0.0000e+00
       11 -1    0    0    0    0 -6.5606663557e-19 +2.2639019664e-19 +5.6204997772e-16 5.1100000000e-04 5.1099893000e-04 0.0000e+00 1.0000e+00
       50  1    1    2    0    0 +2.5367396195e-03 +4.6553388716e-03 +8.2418917067e+00 8.2418949246e+00 4.9935713700e-03 0.0000e+00 0.0000e+00
       11  1    1    2    0    0 -1.2331228920e-02 -1.2755352993e-03 +1.4901280568e-01 1.4952847078e-01 5.1099893000e-04 0.0000e+00 1.0000e+00
<vert_displacement>
393.76950482068946
</vert_displacement>
</event>
<event>
 4   1200 +8.5212000e+10 9.16310300e-03 7.81665300e-03            nan
       50 -1    0    0    0    0 +6.8889486099e-03 +1.1200407762e-02 +5.1541072591e+00 5.1541264517e+00 4.9935713700e-03 0.0000e+00 0.0000e+00
       11 -1    0    0    0    0 -2.1331242978e-19 -3.4681434418e-19 -1.5959404040e-16 5.1100000000e-04 5.1099893000e-04 0.0000e+00 1.0000e+00
       50  1    1    2    0    0 -6.9017945448e-04 +9.4118186643e-03 +5.0956938386e+00 5.0957050240e+00 4.9935713700e-03 0.0000e+00 0.0000e+00
       11  1    1    2    0    0 +7.5791280643e-03 +1.7885890976e-03 +5.8413420440e-02 5.8932427751e-02 5.1099893000e-04 0.0000e+00 1.0000e+00
<vert_displacement>
494.63468832163591
</vert_displacement>
</event>
<event>
 4   1200 +8.5212000e+10 1.99175500e-02 7.81665300e-03            nan
       50 -1    0    0    0    0 -4.7490816635e-03 +1.9970628782e-03 +4.4751420493e+00 4.4751478009e+00 4.9935713700e-03 0.0000e+00 0.0000e+00
       11 -1    0    0    0    0 +4.0500040853e-19 -1.7030898579e-19 -3.8163891182e-16 5.1100000000e-04 5.1099893000e-04 0.0000e+00 1.0000e+00
       50  1    1    2    0    0 -1.8904895185e-03 +2.0945810577e-02 +4.0754315825e+00 4.0754889057e+00 4.9935713700e-03 0.0000e+00 0.0000e+00
       11  1    1    2    0    0 -2.8585921450e-03 -1.8948747699e-02 +3.9971046679e-01 4.0016989513e-01 5.1099893000e-04 0.0000e+00 1.0000e+00
<vert_displacement>
264.00559753787581
</vert_displacement>
</event>
<event>
 4   1200 +8.5212000e+10 1.48428400e-02 7.81665300e-03            nan
       50 -1    0    0    0    0 +6.4847054470e-02 -5.8780281401e-02 +5.8536756412e+01 5.8536822056e+01 4.9935713700e-03 0.0000e+00 0.0000e+00
       11 -1    0    0    0    0 -9.8392349547e-19 +8.9187242834e-19 -8.8817742691e-16 5.1100000000e-04 5.1099893000e-04 0.0000e+00 1.0000e+00
       50  1    1    2    0    0 +7.3682628432e-02 -6.9241631780e-02 +5.8344937046e+01 5.8345024873e+01 4.9935713700e-03 0.0000e+00 0.0000e+00
       11  1    1    2    0    0 -8.8355739614e-03 +1.0461350378e-02 +1.9181936543e-01 1.9230818312e-01 5.1099893000e-04 0.0000e+00 1.0000e+00
<vert_displacement>
378.27948295786581
</vert_displacement>
</event>
<event>
 4   1200 +8.5212000e+10 9.64174000e-03 7.81665300e-03            nan
       50 -1    0    0    0    0 +2.9563340916e-02 -6.4258872881e-02 +3.3310656904e+01 3.3310732377e+01 4.9935713700e-03 0.0000e+00 0.0000e+00
       11 -1    0    0    0    0 -3.2885226643e-18 +7.1479323143e-18 -3.7053609909e-15 5.1100000000e-04 5.1099893000e-04 0.0000e+00 1.0000e+00
       50  1    1    2    0    0 +2.7705200098e-02 -7.2179493367e-02 +3.3243945448e+01 3.3244035726e+01 4.9935713700e-03 0.0000e+00 0.0000e+00
       11  1    1    2    0    0 +1.8581408176e-03 +7.9206204857e-03 +6.6711455661e-02 6.7207650997e-02 5.1099893000e-04 0.0000e+00 1.0000e+00
<vert_displacement>
34.798477066957787
</vert_displacement>
</event>
<event>
 4   1200 +8.5212000e+10 1.99956300e-02 7.81665300e-03            nan
       50 -1    0    0    0    0 +2.6764903185e-03 -3.0296600932e-03 +1.8772968575e+00 1.8773078516e+00 4.9935713700e-03 0.0000e+00 0.0000e+00
       11 -1    0    0    0    0 -5.4410742611e-20 +6.1590379906e-20 -3.8163827986e-17 5.1100000000e-04 5.1099893000e-04 0.0000e+00 1.0000e+00
       50  1    1    2    0    0 -9.8461821571e-03 +1.3131194317e-02 +1.3734065135e+00 1.3735136558e+00 4.9935713700e-03 0.0000e+00 0.0000e+00
       11  1    1    2    0    0 +1.2522672476e-02 -1.6160854410e-02 +5.0389034400e-01 5.0430519573e-01 5.1099893000e-04 0.0000e+00 1.0000e+00
<vert_displacement>
62.681425407539763
</vert_displacement>
</event>
<event>
 4   1200 +8.5212000e+10 6.18061300e-03 7.81665300e-03            nan
       50 -1    0    0    0    0 -1.2199616721e-02 +2.8928353530e-03 +6.7994358309e+00 6.7994492242e+00 4.9935713700e-03 0.0000e+00 0.0000e+00
       11 -1    0    0    0    0 -7.4698875863e-20 +1.7712978520e-20 +4.1633292643e-17 5.1100000000e-04 5.1099893000e-04 0.0000e+00 1.0000e+00
       50  1    1    2    0    0 -1.5786273013e-02 +3.3691260334e-03 +6.7864245421e+00 6.7864455762e+00 4.9935713700e-03 0.0000e+00 0.0000e+00
       11  1    1    2    0    0 +3.5866562920e-03 -4.7629068043e-04 +1.3011288802e-02 1.3514648067e-02 5.1099893000e-04 0.0000e+00 1.0000e+00
<vert_displacement>
299.20831526992754
</vert_displacement>
</event>
<event>
 4   1200 +8.5212000e+10 1.01478700e-02 7.81665300e-03            nan
       50 -1    0    0    0    0 +3.9070461560e-02 +3.0167192753e-02 +1.5367056304e+01 1.5367136394e+01 4.9935713700e-03 0.0000e+00 0.0000e+00
       11 -1    0    0    0    0 -1.3760698157e-18 -1.0624948289e-18 -5.4123093230e-16 5.1100000000e-04 5.1099893000e-04 0.0000e+00 1.0000e+00
       50  1    1    2    0    0 +4.6954744051e-02 +3.3589458185e-02 +1.5290279083e+01 1.5290388889e+01 4.9935713700e-03 0.0000e+00 0.0000e+00
       11  1    1    2    0    0 -7.8842824909e-03 -3.4222654323e-03 +7.6777220848e-02 7.7258504853e-02 5.1099893000e-04 0.0000e+00 1.0000e+00
<vert_displacement>
339.54846197096469
</vert_displacement>
</event>
<event>
 4   1200 +8.5212000e+10 1.24618600e-02 7.81665300e-03            nan
       50 -1    0    0    0    0 -9.6089852224e-03 +3.3760535682e-03 +8.1162077342e+00 8.1162156607e+00 4.9935713700e-03 0.0000e+00 0.0000e+00
       11 -1    0    0    0    0 -6.7364040581e-19 +2.3667911263e-19 +5.6898885213e-16 5.1100000000e-04 5.1099893000e-04 0.0000e+00 1.0000e+00
       50  1    1    2    0    0 -2.0024388042e-02 +7.6419171094e-03 +7.9865526017e+00 7.9865829220e+00 4.9935713700e-03 0.0000e+00 0.0000e+00
       11  1    1    2    0    0 +1.0415402819e-02 -4.2658635412e-03 +1.2965513254e-01 1.3014373869e-01 5.1099893000e-04 0.0000e+00 1.0000e+00
<vert_displacement>
252.98621307852599
</vert_displacement>
</event>
<event>
 4   1200 +8.5212000e+10 6.77453900e-03 7.81665300e-03            nan
       50 -1    0    0    0    0 +5.2007245641e-03 -7.8851734934e-02 +3.0244584300e+01 3.0244687948e+01 4.9935713700e-03 0.0000e+00 0.0000e+00
       11 -1    0    0    0    0 -7.3976995390e-20 +1.1216157210e-18 -4.3020995358e-16 5.1100000000e-04 5.1099893000e-04 0.0000e+00 1.0000e+00
       50  1    1    2    0    0 +8.2710247028e-03 -8.2190886721e-02 +3.0224053262e+01 3.0224166560e+01 4.9935713700e-03 0.0000e+00 0.0000e+00
       11  1    1    2    0    0 -3.0703001386e-03 +3.3391517874e-03 +2.0531038146e-02 2.1032387522e-02 5.1099893000e-04 0.0000e+00 1.0000e+00
<vert_displacement>
44.542915132063555
</vert_displacement>
</event>
<event>
 4   1200 +8.5212000e+10 7.31789400e-03 7.81665300e-03            nan
       50 -1    0    0    0    0 +2.3572181966e-03 -5.6451085564e-04 +2.9209403175e+00 2.9209455916e+00 4.9935713700e-03 0.0000e+00 0.0000e+00
       11 -1    0    0    0    0 -1.2039422606e-19 +2.8832225910e-20 -1.4918616757e-16 5.1100000000e-04 5.1099893000e-04 0.0000e+00 1.0000e+00
       50  1    1    2    0    0 +5.5147576768e-03 +3.7422461719e-03 +2.8926577541e+00 2.8926697418e+00 4.9935713700e-03 0.0000e+00 0.0000e+00
       11  1    1    2    0    0 -3.1575394802e-03 -4.3067570275e-03 +2.8282563357e-02 2.8786849803e-02 5.1099893000e-04 0.0000e+00 1.0000e+00
<vert_displacement>
33.219076954682798
</vert_displacement>
</event>
<event>
 4   1200 +8.5212000e+10 2.25128700e-02 7.81665300e-03            nan
       50 -1    0    0    0    0 -1.5645977037e-02 -3.6914545441e-02 +2.0185259357e+01 2.0185299792e+01 4.9935713700e-03 0.0000e+00 0.0000e+00
       11 -1    0    0    0    0 +2.9043670754e-19 +6.8524573521e-19 -3.7469953167e-16 5.1100000000e-04 5.1099893000e-04 0.0000e+00 1.0000e+00
       50  1    1    2    0    0 +4.9717131026e-04 -5.1303300796e-02 +1.9702136306e+01 1.9702203741e+01 4.9935713700e-03 0.0000e+00 0.0000e+00
       11  1    1    2    0    0 -1.6143148348e-02 +1.4388755355e-02 +4.8312305064e-01 4.8360705195e-01 5.1099893000e-04 0.0000e+00 1.0000e+00
<vert_displacement>
71.732588053199905
</vert_displacement>
</event>
<event>
 4   1200 +8.5212000e+10 8.61705800e-03 7.81665300e-03            nan
       50 -1    0    0    0    0 -1.5329868057e-02 +5.5722146372e-02 +2.9802735194e+01 2.9802791647e+01 4.9935713700e-03 0.0000e+00 0.0000e+00
       11 -1    0    0    0    0 +6.9956455186e-19 -2.5428293453e-18 -1.3600206481e-15 5.1100000000e-04 5.1099893000e-04 0.0000e+00 1.0000e+00
       50  1    1    2    0    0 -2.2305548672e-02 +5.6188824701e-02 +2.9754395063e+01 2.9754456897e+01 4.9935713700e-03 0.0000e+00 0.0000e+00
       11  1    1    2    0    0 +6.9756806150e-03 -4.6667832908e-04 +4.8340130838e-02 4.8845749846e-02 5.1099893000e-04 0.0000e+00 1.0000e+00
<vert_displacement>
0.38362791480161029
</vert_displacement>
</event>
<event>
 4   1200 +8.5212000e+10 4.37348200e-02 7.81665300e-03            nan
       50 -1    0    0    0    0 -1.1472994482e-01 -8.7221204388e-02 +4.0682447519e+01 4.0682703100e+01 4.9935713700e-03 0.0000e+00 0.0000e+00
       11 -1    0    0    0    0 +1.3815351371e-17 +1.0502851609e-17 -4.8988283569e-15 5.1100000000e-04 5.1099893000e-04 0.0000e+00 1.0000e+00
       50  1    1    2    0    0 -1.1348375170e-01 -1.2630541732e-01 +3.8742631151e+01 3.8743003563e+01 4.9935713700e-03 0.0000e+00 0.0000e+00
       11  1    1    2    0    0 -1.2461931221e-03 +3.9084212929e-02 +1.9398163678e+00 1.9402105377e+00 5.1099893000e-04 0.0000e+00 1.0000e+00
<vert_displacement>
317.47108228539133
</vert_displacement>
</event>
<event>
 4   1200 +8.5212000e+10 1.13620800e-02 7.81665300e-03            nan
       50 -1    0    0    0    0 +2.1146938305e-02 +7.2985400618e-02 +3.0115648240e+01 3.0115744519e+01 4.9935713700e-03 0.0000e+00 0.0000e+00
       11 -1    0    0    0    0 +1.2083585740e-18 +4.1704635129e-18 +1.7208402104e-15 5.1100000000e-04 5.1099893000e-04 0.0000e+00 1.0000e+00
       50  1    1    2    0    0 +1.2937517161e-02 +6.6578007751e-02 +3.0013401004e+01 3.0013478052e+01 4.9935713700e-03 0.0000e+00 0.0000e+00
       11  1    1    2    0    0 +8.2094211444e-03 +6.4073928675e-03 +1.0224723620e-01 1.0277746693e-01 5.1099893000e-04 0.0000e+00 1.0000e+00
<vert_displacement>
104.80121355927787
</vert_displacement>
</event>
<event>
 4   1200 +8.5212000e+10 9.74836600e-03 7.81665300e-03            nan
       50 -1    0    0    0    0 +2.6815579857e-02 +2.4153457934e-02 +1.2291483532e+01 1.2291537529e+01 4.9935713700e-03 0.0000e+00 0.0000e+00
       11 -1    0    0    0    0 +1.9830906171e-18 +1.7862189091e-18 +9.0899118322e-16 5.1100000000e-04 5.1099893000e-04 0.0000e+00 -1.0000e+00
       50  1    1    2    0    0 +3.2843063914e-02 +2.9668316096e-02 +1.2222482554e+01 1.2222563708e+01 4.9935713700e-03 0.0000e+00 0.0000e+00
       11  1    1    2    0    0 -6.0274840574e-03 -5.5148581617e-03 +6.9000978026e-02 6.9484820738e-02 5.1099893000e-04 0.0000e+00 -1.0000e+00
<vert_displacement>
455.63038886389796
</vert_displacement>
</event>
<event>
 4   1200 +8.5212000e+10 1.17217100e-02 7.81665300e-03            nan
       50 -1    0    0    0    0 -1.7345552531e-03 +4.7360474010e-03 +2.5424799474e+00 2.5424898540e+00 4.9935713700e-03 0.0000e+00 0.0000e+00
       11 -1    0    0    0    0 -2.3669549884e-20 +6.4627581055e-20 +3.4694401253e-17 5.1100000000e-04 5.1099893000e-04 0.0000e+00 1.0000e+00
       50  1    1    2    0    0 -8.9634028323e-03 -3.1640357597e-03 +2.4271425496e+00 2.4271662995e+00 4.9935713700e-03 0.0000e+00 0.0000e+00
       11  1    1    2    0    0 +7.2288475792e-03 +7.9000831607e-03 +1.1533739786e-01 1.1583455450e-01 5.1099893000e-04 0.0000e+00 1.0000e+00
<vert_displacement>
202.44247812106988
</vert_displacement>
</event>
<event>
 4   1200 +8.5212000e+10 1.95928700e-02 7.81665300e-03            nan
       50 -1    0    0    0    0 -6.8047204779e-02 +6.6566386971e-03 +2.5604515197e+01 2.5604606972e+01 4.9935713700e-03 0.0000e+00 0.0000e+00
       11 -1    0    0    0    0 -3.5037735727e-18 +3.4275257633e-19 +1.3183851413e-15 5.1100000000e-04 5.1099893000e-04 0.0000e+00 1.0000e+00
       50  1    1    2    0    0 -5.4432042778e-02 -7.5232313717e-03 +2.5248369065e+01 2.5248429354e+01 4.9935713700e-03 0.0000e+00 0.0000e+00
       11  1    1    2    0    0 -1.3615162001e-02 +1.4179870069e-02 +3.5614613246e-01 3.5668861790e-01 5.1099893000e-04 0.0000e+00 1.0000e+00
<vert_displacement>
449.13294106475070
</vert_displacement>
</event>
<event>
 4   1200 +8.5212000e+10 6.30515400e-03 7.81665300e-03            nan
       50 -1    0    0    0    0 -1.9794648716e-02 -1.9024680621e-03 +5.9623727365e+00 5.9624079894e+00 4.9935713700e-03 0.0000e+00 0.0000e+00
       11 -1    0    0    0    0 -1.4973725417e-18 -1.4391280586e-19 +4.5102559522e-16 5.1100000000e-04 5.1099893000e-04 0.0000e+00 1.0000e+00
       50  1    1    2    0    0 -2.1248384331e-02 +1.6466306577e-03 +5.9478319237e+00 5.9478722022e+00 4.9935713700e-03 0.0000e+00 0.0000e+00
       11  1    1    2    0    0 +1.4537356155e-03 -3.5490987198e-03 +1.4540812780e-02 1.5046787205e-02 5.1099893000e-04 0.0000e+00 1.0000e+00
<vert_displacement>
478.05390406258880
</vert_displacement>
</event>
<event>
 4   1200 +8.5212000e+10 5.06748000e-03 7.81665300e-03            nan
       50 -1    0    0    0    0 +1.1905016515e-01 +2.4176464249e-02 +3.8583583886e+01 3.8583775448e+01 4.9935713700e-03 0.0000e+00 0.0000e+00
       11 -1    0    0    0    0 -8.4783378290e-18 -1.7217635201e-18 -2.7477883665e-15 5.1100000000e-04 5.1099893000e-04 0.0000e+00 1.0000e+00
       50  1    1    2    0    0 +1.1819955987e-01 +2.4330517887e-02 +3.8582858800e+01 3.8583047848e+01 4.9935713700e-03 0.0000e+00 0.0000e+00
       11  1    1    2    0    0 +8.5060528167e-04 -1.5405363770e-04 +7.2508561238e-04 1.2386003876e-03 5.1099893000e-04 0.0000e+00 1.0000e+00
<vert_displacement>
466.93756154638015
</vert_displacement>
</event>
<event>
 4   1200 +8.5212000e+10 3.02200300e-02 7.81665300e-03            nan
       50 -1    0    0    0    0 -2.7407505261e-02 +9.4193491372e-02 +3.9121986105e+01 3.9122109418e+01 4.9935713700e-03 0.0000e+00 0.0000e+00
       11 -1    0    0    0    0 -2.4889000385e-18 +8.5537951035e-18 +3.5527025096e-15 5.1100000000e-04 5.1099893000e-04 0.0000e+00 1.0000e+00
       50  1    1    2    0    0 -1.8772295952e-02 +1.2075943907e-01 +3.8232488346e+01 3.8232683993e+01 4.9935713700e-03 0.0000e+00 0.0000e+00
       11  1    1    2    0    0 -8.6352093090e-03 -2.6565947698e-02 +8.8949775915e-01 8.8993642529e-01 5.1099893000e-04 0.0000e+00 1.0000e+00
<vert_displacement>
188.10654710041047
</vert_displacement>
</event>
<event>
 4   1200 +8.5212000e+10 2.00184100e-02 7.81665300e-03            nan
       50 -1    0    0    0    0 +1.8543647447e-02 -1.1673692467e-02 +7.1325231059e+00 7.1325585125e+00 4.9935713700e-03 0.0000e+00 0.0000e+00
       11 -1    0    0    0    0 -1.3890916398e-18 +8.7446812481e-19 -5.3429230926e-16 5.1100000000e-04 5.1099893000e-04 0.0000e+00 1.0000e+00
       50  1    1    2    0    0 +2.1067476040e-02 +8.0235216901e-03 +6.7435185849e+00 6.7435581154e+00 4.9935713700e-03 0.0000e+00 0.0000e+00
       11  1    1    2    0    0 -2.5238285925e-03 -1.9697214157e-02 +3.8900452101e-01 3.8951139706e-01 5.1099893000e-04 0.0000e+00 1.0000e+00
<vert_displacement>
407.57246424050328
</vert_displacement>
</event>
<event>
 4   1200 +8.5212000e+10 1.37833800e-02 7.81665300e-03            nan
       50 -1    0    0    0    0 -3.0744146407e-02 -1.7129365291e-02 +1.3341878446e+01 1.3341925799e+01 4.9935713700e-03 0.0000e+00 0.0000e+00
       11 -1    0    0    0    0 +1.1032737543e-18 +6.1469845037e-19 -4.7878201362e-16 5.1100000000e-04 5.1099893000e-04 0.0000e+00 1.0000e+00
       50  1    1    2    0    0 -2.3778459062e-02 -5.8907897089e-03 +1.3178401736e+01 1.3178425451e+01 4.9935713700e-03 0.0000e+00 0.0000e+00
       11  1    1    2    0    0 -6.9656873452e-03 -1.1238575582e-02 +1.6347671048e-01 1.6401134830e-01 5.1099893000e-04 0.0000e+00 1.0000e+00
<vert_displacement>
379.00344267458769
</vert_displacement>
</event>
<event>
 4   1200 +8.5212000e+10 2.10663600e-02 7.81665300e-03            nan
       50 -1    0    0    0    0 -3.2079384137e-03 +1.3444668028e-03 +5.9358797988e+00 5.9358829183e+00 4.9935713700e-03 0.0000e+00 0.0000e+00
       11 -1    0    0    0    0 +8.9999964564e-20 -3.7719541027e-20 -1.6653342510e-16 5.1100000000e-04 5.1099893000e-04 0.0000e+00 1.0000e+00
       50  1    1    2    0    0 -1.9521309259e-02 +1.3279875142e-02 +5.4927849407e+00 5.4928379530e+00 4.9935713700e-03 0.0000e+00 0.0000e+00
       11  1    1    2    0    0 +1.6313370845e-02 -1.1935408340e-02 +4.4309485807e-01 4.4355596536e-01 5.1099893000e-04 0.0000e+00 1.0000e+00
<vert_displacement>
281.14726005856670
</vert_displacement>
</event>
<event>
 4   1200 +8.5212000e+10 3.77516700e-02 7.81665300e-03            nan
       50 -1    0    0    0    0 +1.2478522285e-03 -6.0665507271e-03 +1.0247685621e+01 1.0247688709e+01 4.9935713700e-03 0.0000e+00 0.0000e+00
       11 -1    0    0    0    0 +1.4279540672e-19 -6.9421327196e-19 +1.1726728556e-15 5.1100000000e-04 5.1099893000e-04 0.0000e+00 1.0000e+00
       50  1    1    2    0    0 -3.5036835477e-02 -1.5003038147e-02 +8.6175994652e+00 8.6176851967e+00 4.9935713700e-03 0.0000e+00 0.0000e+00
       11  1    1    2    0    0 +3.6284687705e-02 +8.9364874195e-03 +1.6300861554e+00 1.6305145123e+00 5.1099893000e-04 0.0000e+00 1.0000e+00
<vert_displacement>
54.960618520436526
</vert_displacement>
</event>
<event>
 4   1200 +8.5212000e+10 1.33523000e-02 7.81665300e-03            nan
       50 -1    0    0    0    0 -2.4100701566e-02 -5.3869306625e-02 +2.4712792949e+01 2.4712863918e+01 4.9935713700e-03 0.0000e+00 0.0000e+00
       11 -1    0    0    0    0 -3.0451548155e-18 -6.8064565685e-18 +3.1224933535e-15 5.1100000000e-04 5.1099893000e-04 0.0000e+00 1.0000e+00
       50  1    1    2    0    0 -2.4879601703e-02 -4.1191543036e-02 +2.4561846046e+01 2.4561893694e+01 4.9935713700e-03 0.0000e+00 0.0000e+00
       11  1    1    2    0    0 +7.7890013709e-04 -1.2677763589e-02 +1.5094690360e-01 1.5148122393e-01 5.1099893000e-04 0.0000e+00 1.0000e+00
<vert_displacement>
192.70850531128141
</vert_displacement>
</event>
<event>
 4   1200 +8.5212000e+10 1.14574200e-02 7.81665300e-03            nan
       50 -1    0    0    0    0 -1.3071624753e-02 -2.3813313269e-02 +9.7603380743e+00 9.7603771547e+00 4.9935713700e-03 0.0000e+00 0.0000e+00
       11 -1    0    0    0    0 -5.8545541304e-19 -1.0665570210e-18 +4.3714862282e-16 5.1100000000e-04 5.1099893000e-04 0.0000e+00 1.0000e+00
       50  1    1    2    0    0 -2.2730410324e-02 -2.6766493800e-02 +9.6551279072e+00 9.6551930564e+00 4.9935713700e-03 0.0000e+00 0.0000e+00
       11  1    1    2    0    0 +9.6587855705e-03 +2.9531805314e-03 +1.0521016709e-01 1.0569509825e-01 5.1099893000e-04 0.0000e+00 1.0000e+00
<vert_displacement>
372.26579724652851
</vert_displacement>
</event>
<event>
 4   1200 +8.5212000e+10 6.26514600e-03 7.81665300e-03            nan
       50 -1    0    0    0    0 -4.7618538430e-02 -1.4577650901e-02 +1.5218208654e+01 1.5218290956e+01 4.9935713700e-03 0.0000e+00 0.0000e+00
       11 -1    0    0    0    0 -6.0793686584e-18 -1.8611010946e-18 +1.9428798904e-15 5.1100000000e-04 5.1099893000e-04 0.0000e+00 1.0000e+00
       50  1    1    2    0    0 -5.0019653550e-02 -1.7451816210e-02 +1.5204176788e+01 1.5204269903e+01 4.9935713700e-03 0.0000e+00 0.0000e+00
       11  1    1    2    0    0 +2.4011151195e-03 +2.8741653097e-03 +1.4031865748e-02 1.4532052723e-02 5.1099893000e-04 0.0000e+00 1.0000e+00
<vert_displacement>
279.00097145993163
</vert_displacement>
</event>
<event>
 4   1200 +8.5212000e+10 8.12756900e-03 7.81665300e-03            nan
       50 -1    0    0    0    0 +7.9785658712e-02 +7.4520267181e-03 +3.3243871766e+01 3.3243968720e+01 4.9935713700e-03 0.0000e+00 0.0000e+00
       11 -1    0    0    0    0 -1.1324293968e-18 -1.0576956131e-19 -4.7184341469e-16 5.1100000000e-04 5.1099893000e-04 0.0000e+00 1.0000e+00
       50  1    1    2    0    0 +8.4656730737e-02 +1.1497972944e-02 +3.3203573156e+01 3.3203683443e+01 4.9935713700e-03 0.0000e+00 0.0000e+00
       11  1    1    2    0    0 -4.8710720250e-03 -4.0459462258e-03 +4.0298610384e-02 4.0796276084e-02 5.1099893000e-04 0.0000e+00 1.0000e+00
<vert_displacement>
452.43478129687867
</vert_displacement>
</event>
<event>
 4   1200 +8.5212000e+10 2.18562800e-02 7.81665300e-03            nan
       50 -1    0    0    0    0 -2.9263277289e-02 +2.5962904834e-02 +1.3525229689e+01 1.3525287187e+01 4.9935713700e-03 0.0000e+00 0.0000e+00
       11 -1    0    0    0    0 -6.9059682218e-19 +6.1270989562e-19 +3.1918778442e-16 5.1100000000e-04 5.1099893000e-04 0.0000e+00 1.0000e+00
       50  1    1    2    0    0 -1.6197045442e-02 +7.5618180592e-03 +1.3066681551e+01 1.3066694732e+01 4.9935713700e-03 0.0000e+00 0.0000e+00
       11  1    1    2    0    0 -1.3066231847e-02 +1.8401086775e-02 +4.5854813848e-01 4.5910345548e-01 5.1099893000e-04 0.0000e+00 1.0000e+00
<vert_displacement>
345.22260590328364
</vert_displacement>
</event>
<event>
 4   1200 +8.5212000e+10 1.61559000e-02 7.81665300e-03            nan
       50 -1    0    0    0    0 +2.8115827756e-02 +3.7223737317e-03 +8.5810199755e+00 8.5810682966e+00 4.9935713700e-03 0.0000e+00 0.0000e+00
       11 -1    0    0    0    0 +1.1367627672e-18 +1.5050084602e-19 +3.4694280025e-16 5.1100000000e-04 5.1099893000e-04 0.0000e+00 1.0000e+00
       50  1    1    2    0    0 +3.7025427192e-02 +1.5544750208e-02 +8.3433774020e+00 8.3434755305e+00 4.9935713700e-03 0.0000e+00 0.0000e+00
       11  1    1    2    0    0 -8.9095994361e-03 -1.1822376476e-02 +2.3764257356e-01 2.3810376611e-01 5.1099893000e-04 0.0000e+00 1.0000e+00
<vert_displacement>
433.82571656667375
</vert_displacement>
</event>
<event>
 4   1200 +8.5212000e+10 8.27310100e-03 7.81665300e-03            nan
       50 -1    0    0    0    0 +4.4465556153e-02 +2.9031203928e-02 +2.3027950259e+01 2.3028012030e+01 4.9935713700e-03 0.0000e+00 0.0000e+00
       11 -1    0    0    0    0 -2.2509550372e-18 -1.4696304369e-18 -1.1657310763e-15 5.1100000000e-04 5.1099893000e-04 0.0000e+00 1.0000e+00
       50  1    1    2    0    0 +4.2213409450e-02 +2.2748443407e-02 +2.2985310529e+01 2.2985361091e+01 4.9935713700e-03 0.0000e+00 0.0000e+00
       11  1    1    2    0    0 +2.2521467024e-03 +6.2827605216e-03 +4.2639729920e-02 4.3161938466e-02 5.1099893000e-04 0.0000e+00 1.0000e+00
<vert_displacement>
292.82549397726115
</vert_displacement>
</event>
<event>
 4   1200 +8.5212000e+10 9.25425200e-03 7.81665300e-03            nan
       50 -1    0    0    0    0 +4.1703503504e-02 +3.2339688053e-02 +1.3259279949e+01 1.3259385911e+01 4.9935713700e-03 0.0000e+00 0.0000e+00
       11 -1    0    0    0    0 +3.7755959518e-18 +2.9278498216e-18 +1.2004191373e-15 5.1100000000e-04 5.1099893000e-04 0.0000e+00 1.0000e+00
       50  1    1    2    0    0 +4.3372049629e-02 +2.4627138242e-02 +1.3199623079e+01 1.3199718254e+01 4.9935713700e-03 0.0000e+00 0.0000e+00
       11  1    1    2    0    0 -1.6685461250e-03 +7.7125498117e-03 +5.9656870486e-02 6.0178657237e-02 5.1099893000e-04 0.0000e+00 1.0000e+00
<vert_displacement>
139.59151802166971
</vert_displacement>
</event>
<event>
 4   1200 +8.5212000e+10 6.67971400e-03 7.81665300e-03            nan
       50 -1    0    0    0    0 -7.6106469838e-02 +6.1983453596e-02 +2.9733950895e+01 2.9734113320e+01 4.9935713700e-03 0.0000e+00 0.0000e+00
       11 -1    0    0    0    0 -2.3799160467e-18 +1.9382769449e-18 +9.2980671707e-16 5.1100000000e-04 5.1099893000e-04 0.0000e+00 1.0000e+00
       50  1    1    2    0    0 -7.8018552621e-02 +6.5922665578e-02 +2.9714665731e+01 2.9714841698e+01 4.9935713700e-03 0.0000e+00 0.0000e+00
       11  1    1    2    0    0 +1.9120827824e-03 -3.9392119828e-03 +1.9285164351e-02 1.9782622060e-02 5.1099893000e-04 0.0000e+00 1.0000e+00
<vert_displacement>
107.85523707024055
</vert_displacement>
</event>
<event>
 4   1200 +8.5212000e+10 1.24107200e-02 7.81665300e-03            nan
       50 -1    0    0    0    0 -4.9788366081e-03 -5.6952704677e-03 +9.4362205271e+00 9.4362248806e+00 4.9935713700e-03 0.0000e+00 0.0000e+00
       11 -1    0    0    0    0 +6.1873773680e-19 +7.0777152115e-19 -1.1726726929e-15 5.1100000000e-04 5.1099893000e-04 0.0000e+00 1.0000e+00
       50  1    1    2    0    0 -1.3164798772e-02 +2.1903203901e-03 +9.3081602303e+00 9.3081711372e+00 4.9935713700e-03 0.0000e+00 0.0000e+00
       11  1    1    2    0    0 +8.1859621643e-03 -7.8855908578e-03 +1.2806029680e-01 1.2856474344e-01 5.1099893000e-04 0.0000e+00 1.0000e+00
<vert_displacement>
492.67418122672558
</vert_displacement>
</event>
<event>
 4   1200 +8.5212000e+10 3.24454100e-02 7.81665300e-03            nan
       50 -1    0    0    0    0 -3.7671739401e-03 +1.0298433081e-02 +4.5944017530e+00 4.5944175531e+00 4.9935713700e-03 0.0000e+00 0.0000e+00
       11 -1    0    0    0    0 +4.2102456328e-19 -1.1509671067e-18 -5.1347668633e-16 5.1100000000e-04 5.1099893000e-04 0.0000e+00 1.0000e+00
       50  1    1    2    0    0 -3.2082226961e-02 -5.5065782778e-03 +3.1000491079e+00 3.1002240239e+00 4.9935713700e-03 0.0000e+00 0.0000e+00
       11  1    1    2    0    0 +2.8315053021e-02 +1.5805011359e-02 +1.4943526451e+00 1.4947045292e+00 5.1099893000e-04 0.0000e+00 1.0000e+00
<vert_displacement>
296.61668387167305
</vert_displacement>
</event>
<event>
 4   1200 +8.5212000e+10 1.46096500e-02 7.81665300e-03            nan
       50 -1    0    0    0    0 +2.1622613774e-02 +2.7636068968e-03 +1.1652815010e+01 1.1652836469e+01 4.9935713700e-03 0.0000e+00 0.0000e+00
       11 -1    0    0    0    0 +3.3218998282e-18 +4.2457518649e-19 +1.7902314949e-15 5.1100000000e-04 5.1099893000e-04 0.0000e+00 1.0000e+00
       50  1    1    2    0    0 +2.5260039789e-02 -1.0419483383e-02 +1.1465332064e+01 1.1465365712e+01 4.9935713700e-03 0.0000e+00 0.0000e+00
       11  1    1    2    0    0 -3.6374260151e-03 +1.3183090280e-02 +1.8748294595e-01 1.8798175677e-01 5.1099893000e-04 0.0000e+00 1.0000e+00
<vert_displacement>
238.67347873663391
</vert_displacement>
</event>
<event>
 4   1200 +8.5212000e+10 7.76305200e-03 7.81665300e-03            nan
       50 -1    0    0    0    0 -7.0563354436e-02 +2.5239609074e-02 +2.0669200728e+01 2.0669337191e+01 4.9935713700e-03 0.0000e+00 0.0000e+00
       11 -1    0    0    0    0 -2.7005223693e-18 +9.6594230023e-19 +7.9102870559e-16 5.1100000000e-04 5.1099893000e-04 0.0000e+00 1.0000e+00
       50  1    1    2    0    0 -7.4056352250e-02 +2.0476274251e-02 +2.0634566744e+01 2.0634710400e+01 4.9935713700e-03 0.0000e+00 0.0000e+00
       11  1    1    2    0    0 +3.4929978136e-03 +4.7633348228e-03 +3.4633983957e-02 3.5137791009e-02 5.1099893000e-04 0.0000e+00 1.0000e+00
<vert_displacement>
256.74997648438926
</vert_displacement>
</event>
<event>
 4   1200 +8.5212000e+10 8.85549900e-03 7.81665300e-03            nan
       50 -1    0    0    0    0 +3.0159487304e-02 +2.2217797820e-02 +1.0191357529e+01 1.0191427596e+01 4.9935713700e-03 0.0000e+00 0.0000e+00
       11 -1    0    0    0    0 -2.9364003545e-18 -2.1631783305e-18 -9.9225512548e-16 5.1100000000e-04 5.1099893000e-04 0.0000e+00 1.0000e+00
       50  1    1    2    0    0 +2.2817148347e-02 +2.0748309781e-02 +1.0138774482e+01 1.0138822616e+01 4.9935713700e-03 0.0000e+00 0.0000e+00
       11  1    1    2    0    0 +7.3423389570e-03 +1.4694880395e-03 +5.2583046543e-02 5.3115979141e-02 5.1099893000e-04 0.0000e+00 1.0000e+00
<vert_displacement>
235.73675550743224
</vert_displacement>
</event>
<event>
 4   1200 +8.5212000e+10 1.28498000e-02 7.81665300e-03            nan
       50 -1    0    0    0    0 +1.0487679639e-02 +1.6791040395e-02 +1.0446179325e+01 1.0446199278e+01 4.9935713700e-03 0.0000e+00 0.0000e+00
       11 -1    0    0    0    0 +8.0114152616e-19 +1.2826478488e-18 +7.9797136593e-16 5.1100000000e-04 5.1099893000e-04 0.0000e+00 1.0000e+00
       50  1    1    2    0    0 +1.9687769042e-03 +8.2028760081e-03 +1.0307176063e+01 1.0307180725e+01 4.9935713700e-03 0.0000e+00 0.0000e+00
       11  1    1    2    0    0 +8.5189027350e-03 +8.5881643870e-03 +1.3900326236e-01 1.3952955364e-01 5.1099893000e-04 0.0000e+00 1.0000e+00
<vert_displacement>
47.499995298446777
</vert_displacement>
</event>
<event>
 4   1200 +8.5212000e+10 1.51044500e-02 7.81665300e-03            nan
       50 -1    0    0    0    0 +1.3760221310e-02 -6.2143069936e-03 +1.2437375844e+01 1.2437386011e+01 4.9935713700e-03 0.0000e+00 0.0000e+00
       11 -1    0    0    0    0 +1.5046748393e-18 -6.7953204870e-19 +1.3600222030e-15 5.1100000000e-04 5.1099893000e-04 0.0000e+00 1.0000e+00
       50  1    1    2    0    0 +3.2880671305e-03 +3.7950720412e-03 +1.2235258452e+01 1.2235260501e+01 4.9935713700e-03 0.0000e+00 0.0000e+00
       11  1    1    2    0    0 +1.0472154179e-02 -1.0009379035e-02 +2.0211739262e-01 2.0263651004e-01 5.1099893000e-04 0.0000e+00 1.0000e+00
<vert_displacement>
373.32514614409649
</vert_displacement>
</event>
<event>
 4   1200 +8.5212000e+10 5.89801000e-02 7.81665300e-03            nan
       50 -1    0    0    0    0 +7.6781488977e-03 +2.8322583738e-03 +2.5579691225e+01 2.5579693021e+01 4.9935713700e-03 0.0000e+00 0.0000e+00
       11 -1    0    0    0    0 -8.0813363482e-19 -2.9809831574e-19 -2.6922906969e-15 5.1100000000e-04 5.1099893000e-04 0.0000e+00 1.0000e+00
       50  1    1    2    0    0 +6.4857274422e-02 +9.1141595019e-03 +2.1571626969e+01 2.1571726972e+01 4.9935713700e-03 0.0000e+00 0.0000e+00
       11  1    1    2    0    0 -5.7179125524e-02 -6.2819011281e-03 +4.0080642559e+00 4.0084770493e+00 5.1099893000e-04 0.0000e+00 1.0000e+00
<vert_displacement>
466.27592446612732
</vert_displacement>
</event>
<event>
 4   1200 +8.5212000e+10 1.44159900e-02 7.81665300e-03            nan
       50 -1    0    0    0    0 -3.6810247411e-03 +4.7231639281e-03 +6.0474642253e+00 6.0474692517e+00 4.9935713700e-03 0.0000e+00 0.0000e+00
       11 -1    0    0    0    0 -2.0273405179e-19 +2.6013032451e-19 +3.3306674410e-16 5.1100000000e-04 5.1099893000e-04 0.0000e+00 1.0000e+00
       50  1    1    2    0    0 -3.1336582564e-04 +1.7704830932e-02 +5.8628338000e+00 5.8628626678e+00 4.9935713700e-03 0.0000e+00 0.0000e+00
       11  1    1    2    0    0 -3.3676589154e-03 -1.2981667004e-02 +1.8463042522e-01 1.8511758383e-01 5.1099893000e-04 0.0000e+00 1.0000e+00
<vert_displacement>
93.017355505248247
</vert_displacement>
</event>
<event>
 4   1200 +8.5212000e+10 1.42644700e-02 7.81665300e-03            nan
       50 -1    0    0    0    0 -1.3925857909e-02 +1.0505630350e-02 +5.1368180308e+00 5.1368500771e+00 4.9935713700e-03 0.0000e+00 0.0000e+00
       11 -1    0    0    0    0 -1.5048926055e-19 +1.1352869988e-19 +5.5510831152e-17 5.1100000000e-04 5.1099893000e-04 0.0000e+00 1.0000e+00
       50  1    1    2    0    0 -1.0312810679e-02 +2.3127192738e-02 +4.9556706104e+00 4.9557378215e+00 4.9935713700e-03 0.0000e+00 0.0000e+00
       11  1    1    2    0    0 -3.6130472305e-03 -1.2621562387e-02 +1.8114742045e-01 1.8162325567e-01 5.1099893000e-04 0.0000e+00 1.0000e+00
<vert_displacement>
112.14144368921428
</vert_displacement>
</event>
<event>
 4   1200 +8.5212000e+10 5.95280200e-03 7.81665300e-03            nan
       50 -1    0    0    0    0 +9.9187216723e-03 +4.0572190755e-03 +1.3990673623e+01 1.3990678618e+01 4.9935713700e-03 0.0000e+00 0.0000e+00
       11 -1    0    0    0    0 +8.0677242556e-19 +3.3000749317e-19 +1.1379782664e-15 5.1100000000e-04 5.1099893000e-04 0.0000e+00 1.0000e+00
       50  1    1    2    0    0 +1.1805187355e-02 +1.4248279953e-03 +1.3980391028e+01 1.3980396977e+01 4.9935713700e-03 0.0000e+00 0.0000e+00
       11  1    1    2    0    0 -1.8864656831e-03 +2.6323910802e-03 +1.0282594194e-02 1.0792640957e-02 5.1099893000e-04 0.0000e+00 1.0000e+00
<vert_displacement>
485.12544558242911
</vert_displacement>
</event>
<event>
 4   1200 +8.5212000e+10 1.08993200e-02 7.81665300e-03            nan
       50 -1    0    0    0    0 +2.3720280548e-02 +5.8538594660e-03 +7.3628178532e+00 7.3628600825e+00 4.9935713700e-03 0.0000e+00 0.0000e+00
       11 -1    0    0    0    0 -1.5424557415e-18 -3.8065819353e-19 -4.7878104344e-16 5.1100000000e-04 5.1099893000e-04 0.0000e+00 1.0000e+00
       50  1    1    2    0    0 +2.3617738824e-02 +1.5465999340e-02 +7.2697854840e+00 7.2698420143e+00 4.9935713700e-03 0.0000e+00 0.0000e+00
       11  1    1    2    0    0 +1.0254172376e-04 -9.6121398736e-03 +9.3032369180e-02 9.3529068118e-02 5.1099893000e-04 0.0000e+00 1.0000e+00
<vert_displacement>
2.0933101181810136
</vert_displacement>
</event>
<event>
 4   1200 +8.5212000e+10 9.58448200e-03 7.81665300e-03            nan
       50 -1    0    0    0    0 -2.2439325350e-02 -1.6179141850e-02 +8.1533694935e+00 8.1534179533e+00 4.9935713700e-03 0.0000e+00 0.0000e+00
       11 -1    0    0    0    0 -3.5711001117e-18 -2.5748249720e-18 +1.2975656913e-15 5.1100000000e-04 5.1099893000e-04 0.0000e+00 1.0000e+00
       50  1    1    2    0    0 -2.9563882049e-02 -1.2367797913e-02 +8.0873308386e+00 8.0873958735e+00 4.9935713700e-03 0.0000e+00 0.0000e+00
       11  1    1    2    0    0 +7.1245566994e-03 -3.8113439369e-03 +6.6038654941e-02 6.6533079871e-02 5.1099893000e-04 0.0000e+00 1.0000e+00
<vert_displacement>
9.7515222321557999
</vert_displacement>
</event>
<event>
 4   1200 +8.5212000e+10 3.03189500e-02 7.81665300e-03            nan
       50 -1    0    0    0    0 +5.5937191767e-02 -5.7519086569e-02 +6.5243999674e+01 6.5244049198e+01 4.9935713700e-03 0.0000e+00 0.0000e+00
       11 -1    0    0    0    0 +3.9739871998e-18 -4.0863709198e-18 +4.6351776230e-15 5.1100000001e-04 5.1099893000e-04 0.0000e+00 1.0000e+00
       50  1    1    2    0    0 +7.3601208260e-02 -8.0291956698e-02 +6.4356838135e+01 6.4356930502e+01 4.9935713700e-03 0.0000e+00 0.0000e+00
       11  1    1    2    0    0 -1.7664016493e-02 +2.2772870129e-02 +8.8716153834e-01 8.8762969605e-01 5.1099893000e-04 0.0000e+00 1.0000e+00
<vert_displacement>
50.169144507556815
</vert_displacement>
</event>
<event>
 4   1200 +8.5212000e+10 1.82154400e-02 7.81665300e-03            nan
       50 -1    0    0    0    0 +8.5293771938e-03 +1.6857689851e-03 +5.4547771609e+00 5.4547863756e+00 4.9935713700e-03 0.0000e+00 0.0000e+00
       11 -1    0    0    0    0 +1.0850006607e-19 +2.1444244064e-20 +6.9388850897e-17 5.1100000000e-04 5.1099893000e-04 0.0000e+00 1.0000e+00
       50  1    1    2    0    0 +2.1549646942e-02 +1.2727156009e-02 +5.1357225038e+00 5.1357859126e+00 4.9935713700e-03 0.0000e+00 0.0000e+00
       11  1    1    2    0    0 -1.3020269748e-02 -1.1041387024e-02 +3.1905465713e-01 3.1951146303e-01 5.1099893000e-04 0.0000e+00 1.0000e+00
<vert_displacement>
41.809060633686165
</vert_displacement>
</event>
<event>
 4   1200 +8.5212000e+10 3.52825400e-02 7.81665300e-03            nan
       50 -1    0    0    0    0 +5.7126713912e-02 -7.4680358154e-02 +3.1264660699e+01 3.1264802481e+01 4.9935713700e-03 0.0000e+00 0.0000e+00
       11 -1    0    0    0    0 +2.2314464756e-18 -2.9171154892e-18 +1.2212398045e-15 5.1100000000e-04 5.1099893000e-04 0.0000e+00 1.0000e+00
       50  1    1    2    0    0 +2.1964983770e-02 -8.3464705779e-02 +3.0021549442e+01 3.0021673915e+01 4.9935713700e-03 0.0000e+00 0.0000e+00
       11  1    1    2    0    0 +3.5161730142e-02 +8.7843476252e-03 +1.2431112565e+00 1.2436395656e+00 5.1099893000e-04 0.0000e+00 1.0000e+00
<vert_displacement>
339.88182463409964
</vert_displacement>
</event>
<event>
 4   1200 +8.5212000e+10 1.23201100e-02 7.81665300e-03            nan
       50 -1    0    0    0    0 -1.2399747478e-02 +9.2071323772e-03 +6.2871385235e+00 6.2871594758e+00 4.9935713700e-03 0.0000e+00 0.0000e+00
       11 -1    0    0    0    0 +5.7477522330e-19 -4.2678543070e-19 -2.9143266467e-16 5.1100000000e-04 5.1099893000e-04 0.0000e+00 1.0000e+00
       50  1    1    2    0    0 -1.2660789714e-02 +2.0272730074e-02 +6.1604299234e+00 6.1604783139e+00 4.9935713700e-03 0.0000e+00 0.0000e+00
       11  1    1    2    0    0 +2.6104223546e-04 -1.1065597697e-02 +1.2670860011e-01 1.2719216194e-01 5.1099893000e-04 0.0000e+00 1.0000e+00
<vert_displacement>
336.63058519318145
</vert_displacement>
</event>
<event>
 4   1200 +8.5212000e+10 9.88876600e-03 7.81665300e-03            nan
       50 -1    0    0    0    0 -1.3703357801e-02 +6.7025368842e-03 +7.0318960069e+00 7.0319143264e+00 4.9935713700e-03 0.0000e+00 0.0000e+00
       11 -1    0    0    0    0 +9.7359039283e-19 -4.7619901728e-19 -4.9959918550e-16 5.1100000000e-04 5.1099893000e-04 0.0000e+00 1.0000e+00
       50  1    1    2    0    0 -1.7802062981e-02 +1.4042119249e-02 +6.9598516091e+00 6.9598903333e+00 4.9935713700e-03 0.0000e+00 0.0000e+00
       11  1    1    2    0    0 +4.0987051806e-03 -7.3395823650e-03 +7.2044397794e-02 7.2534993120e-02 5.1099893000e-04 0.0000e+00 1.0000e+00
<vert_displacement>
483.67113436408351
</vert_displacement>
</event>
<event>
 4   1200 +8.5212000e+10 1.97061200e-02 7.81665300e-03            nan
       50 -1    0    0    0    0 +1.2156738912e-02 +3.3195631675e-03 +2.4988081807e+01 2.4988085483e+01 4.9935713700e-03 0.0000e+00 0.0000e+00
       11 -1    0    0    0    0 +2.7006254087e-19 +7.3744255765e-20 +5.5511144172e-16 5.1100000000e-04 5.1099893000e-04 0.0000e+00 1.0000e+00
       50  1    1    2    0    0 -4.8162145442e-03 +1.2285063835e-02 +2.4627294213e+01 2.4627298254e+01 4.9935713700e-03 0.0000e+00 0.0000e+00
       11  1    1    2    0    0 +1.6972953456e-02 -8.9655006676e-03 +3.6078759370e-01 3.6129822895e-01 5.1099893000e-04 0.0000e+00 1.0000e+00
<vert_displacement>
88.582482277734414
</vert_displacement>
</event>
<event>
 4   1200 +8.5212000e+10 1.85881600e-02 7.81665300e-03            nan
       50 -1    0    0    0    0 +1.0044120944e-02 +1.2665472156e-02 +1.2013519895e+01 1.2013531808e+01 4.9935713700e-03 0.0000e+00 0.0000e+00
       11 -1    0    0    0    0 -6.6135762794e-19 -8.3396114689e-19 -7.9103318897e-16 5.1100000000e-04 5.1099893000e-04 0.0000e+00 1.0000e+00
       50  1    1    2    0    0 +1.8332982484e-03 +2.8373026637e-02 +1.1691146208e+01 1.1691181847e+01 4.9935713700e-03 0.0000e+00 0.0000e+00
       11  1    1    2    0    0 +8.2108226955e-03 -1.5707554480e-02 +3.2237368656e-01 3.2286096046e-01 5.1099893000e-04 0.0000e+00 1.0000e+00
<vert_displacement>
188.85303248178792
</vert_displacement>
</event>
<event>
 4   1200 +8.5212000e+10 1.47895900e-02 7.81665300e-03            nan
       50 -1    0    0    0    0 -1.7507890923e-02 +1.8233700402e-03 +6.3042180801e+00 6.3042446326e+00 4.9935713700e-03 0.0000e+00 0.0000e+00
       11 -1    0    0    0    0 +1.3681997508e-18 -1.4249200235e-19 -4.9265954671e-16 5.1100000000e-04 5.1099893000e-04 0.0000e+00 1.0000e+00
       50  1    1    2    0    0 -4.1529276891e-03 -3.6797140305e-03 +6.1085151153e+00 6.1085196764e+00 4.9935713700e-03 0.0000e+00 0.0000e+00
       11  1    1    2    0    0 -1.3354963234e-02 +5.5030840707e-03 +1.9570296476e-01 1.9623595622e-01 5.1099893000e-04 0.0000e+00 1.0000e+00
<vert_displacement>
487.52253556073720
</vert_displacement>
</event>
<event>
 4   1200 +8.5212000e+10 1.49841500e-02 7.81665300e-03            nan
       50 -1    0    0    0    0 -1.9582033792e-02 -1.3723357199e-02 +6.1686972115e+00 6.1687455783e+00 4.9935713700e-03 0.0000e+00 0.0000e+00
       11 -1    0    0    0    0 +2.4229475421e-18 +1.6980347878e-18 -7.6327259494e-16 5.1100000000e-04 5.1099893000e-04 0.0000e+00 1.0000e+00
       50  1    1    2    0    0 -1.7554680401e-02 -2.7333490563e-02 +5.9667259745e+00 5.9668164943e+00 4.9935713700e-03 0.0000e+00 0.0000e+00
       11  1    1    2    0    0 -2.0273533913e-03 +1.3610133364e-02 +2.0197123702e-01 2.0244008396e-01 5.1099893000e-04 0.0000e+00 1.0000e+00
<vert_displacement>
235.83282387189303
</vert_displacement>
</event>
<event>
 4   1200 +8.5212000e+10 8.49775900e-03 7.81665300e-03            nan
       50 -1    0    0    0    0 -3.1764811409e-02 +4.3421729269e-02 +2.3411985954e+01 2.3412048302e+01 4.9935713700e-03 0.0000e+00 0.0000e+00
       11 -1    0    0    0    0 +2.5230852275e-18 -3.4489965095e-18 -1.8596186562e-15 5.1100000000e-04 5.1099893000e-04 0.0000e+00 1.0000e+00
       50  1    1    2    0    0 -3.3495577362e-02 +3.6698078110e-02 +2.3365644620e+01 2.3365697981e+01 4.9935713700e-03 0.0000e+00 0.0000e+00
       11  1    1    2    0    0 +1.7307659535e-03 +6.7236511593e-03 +4.6341333764e-02 4.6861320624e-02 5.1099893000e-04 0.0000e+00 1.0000e+00
<vert_displacement>
265.15634332430085
</vert_displacement>
</event>
<event>
 4   1200 +8.5212000e+10 5.45359200e-03 7.81665300e-03            nan
       50 -1    0    0    0    0 +3.4179163541e-03 -6.5375099895e-03 +3.2876490457e+00 3.2876611146e+00 4.9935713700e-03 0.0000e+00 0.0000e+00
       11 -1    0    0    0    0 +1.3706252688e-19 -2.6216195654e-19 +1.3183865227e-16 5.1100000000e-04 5.1099893000e-04 0.0000e+00 1.0000e+00
       50  1    1    2    0    0 +4.0436279904e-03 -8.6277211206e-03 +3.2829342351e+00 3.2829518601e+00 4.9935713700e-03 0.0000e+00 0.0000e+00
       11  1    1    2    0    0 -6.2571163632e-04 +2.0902111311e-03 +4.7148106026e-03 5.2202544525e-03 5.1099893000e-04 0.0000e+00 1.0000e+00
<vert_displacement>
169.70796393326205
</vert_displacement>
</event>
<event>
 4   1200 +8.5212000e+10 5.51417500e-03 7.81665300e-03            nan
       50 -1    0    0    0    0 +7.0869656388e-04 +3.8225919852e-02 +1.6641391690e+01 1.6641436357e+01 4.9935713700e-03 0.0000e+00 0.0000e+00
       11 -1    0    0    0    0 +2.4822131464e-20 +1.3388646937e-18 +5.8286554969e-16 5.1100000000e-04 5.1099893000e-04 0.0000e+00 1.0000e+00
       50  1    1    2    0    0 +2.2033519531e-04 +3.5926249300e-02 +1.6636042479e+01 1.6636082022e+01 4.9935713700e-03 0.0000e+00 0.0000e+00
       11  1    1    2    0    0 +4.8836136857e-04 +2.2996705518e-03 +5.3492108283e-03 5.8653352731e-03 5.1099893000e-04 0.0000e+00 1.0000e+00
<vert_displacement>
471.60040622064781
</vert_displacement>
</event>
<event>
 4   1200 +8.5212000e+10 1.22213200e-02 7.81665300e-03            nan
       50 -1    0    0    0    0 +5.0729249012e-03 -6.4530509523e-03 +1.2147016129e+01 1.2147019929e+01 4.9935713700e-03 0.0000e+00 0.0000e+00
       11 -1    0    0    0    0 +7.2446762358e-20 -9.2156430054e-20 +1.7347230799e-16 5.1100000000e-04 5.1099893000e-04 0.0000e+00 1.0000e+00
       50  1    1    2    0    0 -7.5455196345e-04 -1.5930323066e-02 +1.2024013890e+01 1.2024025504e+01 4.9935713700e-03 0.0000e+00 0.0000e+00
       11  1    1    2    0    0 +5.8274768646e-03 +9.4772721138e-03 +1.2300223913e-01 1.2350542549e-01 5.1099893000e-04 0.0000e+00 1.0000e+00
<vert_displacement>
222.69008177640575
</vert_displacement>
</event>
<event>
 4   1200 +8.5212000e+10 1.18609900e-02 7.81665300e-03            nan
       50 -1    0    0    0    0 +1.8814696541e-02 -3.1743346054e-02 +1.7488094407e+01 1.7488134050e+01 4.9935713700e-03 0.0000e+00 0.0000e+00
       11 -1    0    0    0    0 +1.8065890571e-18 -3.0479992858e-18 +1.6792085867e-15 5.1100000000e-04 5.1099893000e-04 0.0000e+00 1.0000e+00
       50  1    1    2    0    0 +2.8341035905e-02 -3.6294987410e-02 +1.7374072363e+01 1.7374134107e+01 4.9935713700e-03 0.0000e+00 0.0000e+00
       11  1    1    2    0    0 -9.5263393643e-03 +4.5516413559e-03 +1.1402204427e-01 1.1451094393e-01 5.1099893000e-04 0.0000e+00 1.0000e+00
<vert_displacement>
417.80222081771154
</vert_displacement>
</event>
<event>
 4   1200 +8.5212000e+10 3.54101300e-02 7.81665300e-03            nan
       50 -1    0    0    0    0 +1.2579109123e-01 +4.1242788761e-02 +3.6978753588e+01 3.6978990876e+01 4.9935713700e-03 0.0000e+00 0.0000e+00
       11 -1    0    0    0    0 -9.9136679992e-18 -3.2503678214e-18 -2.9143167654e-15 5.1100000000e-04 5.1099893000e-04 0.0000e+00 1.0000e+00
       50  1    1    2    0    0 +8.6967573441e-02 +4.5549744708e-02 +3.5734465681e+01 3.5734600887e+01 4.9935713700e-03 0.0000e+00 0.0000e+00
       11  1    1    2    0    0 +3.8823517786e-02 -4.3069559472e-03 +1.2442879073e+00 1.2449009891e+00 5.1099893000e-04 0.0000e+00 1.0000e+00
<vert_displacement>
25.836996514996883
</vert_displacement>
</event>
<event>
 4   1200 +8.5212000e+10 8.25004000e-03 7.81665300e-03            nan
       50 -1    0    0    0    0 +1.3580171055e-02 +9.1165989312e-03 +3.9422132711e+00 3.9422503654e+00 4.9935713700e-03 0.0000e+00 0.0000e+00
       11 -1    0    0    0    0 +2.6293252916e-19 +1.7651106195e-19 +7.6327175974e-17 5.1100000000e-04 5.1099893000e-04 0.0000e+00 1.0000e+00
       50  1    1    2    0    0 +1.8307329018e-02 +1.3418992896e-02 +3.8995174783e+00 3.8995867379e+00 4.9935713700e-03 0.0000e+00 0.0000e+00
       11  1    1    2    0    0 -4.7271579636e-03 -4.3023939647e-03 +4.2695792788e-02 4.3174627479e-02 5.1099893000e-04 0.0000e+00 1.0000e+00
<vert_displacement>
320.12365623970834
</vert_displacement>
</event>
<event>
 4   1200 +8.5212000e+10 3.02093600e-02 7.81665300e-03            nan
       50 -1    0    0    0    0 -5.4690996901e-03 -1.3801686122e-03 +7.1152503809e+00 7.1152543689e+00 4.9935713700e-03 0.0000e+00 0.0000e+00
       11 -1    0    0    0    0 +1.1733793584e-19 +2.9611114304e-20 -1.5265561792e-16 5.1100000000e-04 5.1099893000e-04 0.0000e+00 1.0000e+00
       50  1    1    2    0    0 -2.4230189475e-02 -2.3674782580e-02 +6.1017636745e+00 6.1018597553e+00 4.9935713700e-03 0.0000e+00 0.0000e+00
       11  1    1    2    0    0 +1.8761089785e-02 +2.2294613968e-02 +1.0134867063e+00 1.0139056136e+00 5.1099893000e-04 0.0000e+00 1.0000e+00
<vert_displacement>
295.19752002977066
</vert_displacement>
</event>
<event>
 4   1200 +8.5212000e+10 1.15146600e-02 7.81665300e-03            nan
       50 -1    0    0    0    0 +3.7820063428e-02 +2.8219876960e-02 +1.6595172558e+01 1.6595240398e+01 4.9935713700e-03 0.0000e+00 0.0000e+00
       11 -1    0    0    0    0 -2.0241325153e-18 -1.5103298449e-18 -8.8817482908e-16 5.1100000000e-04 5.1099893000e-04 0.0000e+00 1.0000e+00
       50  1    1    2    0    0 +3.3036510240e-02 +3.7368170274e-02 +1.6489151788e+01 1.6489227981e+01 4.9935713700e-03 0.0000e+00 0.0000e+00
       11  1    1    2    0    0 +4.7835531879e-03 -9.1482933140e-03 +1.0602076956e-01 1.0652341690e-01 5.1099893000e-04 0.0000e+00 1.0000e+00
<vert_displacement>
175.85990891922546
</vert_displacement>
</event>
<event>
 4   1200 +8.5212000e+10 9.46566500e-03 7.81665300e-03            nan
       50 -1    0    0    0    0 -3.7812098237e-02 +3.1107412670e-02 +1.4810839970e+01 1.4810921746e+01 4.9935713700e-03 0.0000e+00 0.0000e+00
       11 -1    0    0    0    0 +2.5509471092e-18 -2.0986236714e-18 -9.9919526201e-16 5.1100000000e-04 5.1099893000e-04 0.0000e+00 1.0000e+00
       50  1    1    2    0    0 -3.2694936947e-02 +3.7307329889e-02 +1.4747293288e+01 1.4747377566e+01 4.9935713700e-03 0.0000e+00 0.0000e+00
       11  1    1    2    0    0 -5.1171612909e-03 -6.1999172185e-03 +6.3546681191e-02 6.4055180302e-02 5.1099893000e-04 0.0000e+00 1.0000e+00
<vert_displacement>
396.15212792289981
</vert_displacement>
</event>
<event>
 4   1200 +8.5212000e+10 2.04221900e-02 7.81665300e-03            nan
       50 -1    0    0    0    0 +3.7843252504e-02 -4.5036062201e-02 +4.8870992776e+01 4.8871028434e+01 4.9935713700e-03 0.0000e+00 0.0000e+00
       11 -1    0    0    0    0 -2.4716391078e-19 +2.9414198102e-19 -3.1918888835e-16 5.1100000000e-04 5.1099893000e-04 0.0000e+00 1.0000e+00
       50  1    1    2    0    0 +2.8497134510e-02 -6.2294666708e-02 +4.8484228483e+01 4.8484277135e+01 4.9935713700e-03 0.0000e+00 0.0000e+00
       11  1    1    2    0    0 +9.3461179937e-03 +1.7258604507e-02 +3.8676429273e-01 3.8726229948e-01 5.1099893000e-04 0.0000e+00 1.0000e+00
<vert_displacement>
278.31795111838636
</vert_displacement>
</event>
<event>
 4   1200 +8.5212000e+10 8.92080300e-03 7.81665300e-03            nan
       50 -1    0    0    0    0 -2.2171788981e-02 -1.5232457736e-02 +1.5683556326e+01 1.5683580190e+01 4.9935713700e-03 0.0000e+00 0.0000e+00
       11 -1    0    0    0    0 +8.2399596113e-19 +5.6610152943e-19 -5.8286623058e-16 5.1100000000e-04 5.1099893000e-04 0.0000e+00 1.0000e+00
       50  1    1    2    0    0 -1.4776779300e-02 -1.6217070277e-02 +1.5629911505e+01 1.5629927701e+01 4.9935713700e-03 0.0000e+00 0.0000e+00
       11  1    1    2    0    0 -7.3950096813e-03 +9.8461254122e-04 +5.3644821269e-02 5.4163489538e-02 5.1099893000e-04 0.0000e+00 1.0000e+00
<vert_displacement>
146.49384410135781
</vert_displacement>
</event>
<event>
 4   1200 +8.5212000e+10 9.24252000e-03 7.81665300e-03            nan
       50 -1    0    0    0    0 -8.5072813704e-02 +3.9760097713e-02 +5.0490890899e+01 5.0490978471e+01 4.9935713700e-03 0.0000e+00 0.0000e+00
       11 -1    0    0    0    0 +8.1372282617e-18 -3.8030597168e-18 -4.8294618045e-15 5.1100000000e-04 5.1099893000e-04 0.0000e+00 1.0000e+00
       50  1    1    2    0    0 -7.9301312830e-02 +4.5035152256e-02 +5.0431639873e+01 5.0431722577e+01 4.9935713700e-03 0.0000e+00 0.0000e+00
       11  1    1    2    0    0 -5.7715008745e-03 -5.2750545430e-03 +5.9251026264e-02 5.9766894314e-02 5.1099893000e-04 0.0000e+00 1.0000e+00
<vert_displacement>
423.25787433762412
</vert_displacement>
</event>
<event>
 4   1200 +8.5212000e+10 1.47527600e-02 7.81665300e-03            nan
       50 -1    0    0    0    0 -3.0944962314e-02 -4.7611038045e-02 +2.1521871982e+01 2.1521947471e+01 4.9935713700e-03 0.0000e+00 0.0000e+00
       11 -1    0    0    0    0 -1.3169599902e-18 -2.0262371484e-18 +9.1593080730e-16 5.1100000000e-04 5.1099893000e-04 0.0000e+00 1.0000e+00
       50  1    1    2    0    0 -1.6979195534e-02 -4.9477296636e-02 +2.1331639374e+01 2.1331704095e+01 4.9935713700e-03 0.0000e+00 0.0000e+00
       11  1    1    2    0    0 -1.3965766779e-02 +1.8662585905e-03 +1.9023260808e-01 1.9075437572e-01 5.1099893000e-04 0.0000e+00 1.0000e+00
<vert_displacement>
63.442585154677765
</vert_displacement>
</event>
<event>
 4   1200 +8.5212000e+10 2.33815700e-02 7.81665300e-03            nan
       50 -1    0    0    0    0 +8.1520188007e-02 -4.2129445368e-02 +3.0148601501e+01 3.0148741563e+01 4.9935713700e-03 0.0000e+00 0.0000e+00
       11 -1    0    0    0    0 -8.1053166026e-18 +4.1888089484e-18 -2.9975882816e-15 5.1100000000e-04 5.1099893000e-04 0.0000e+00 1.0000e+00
       50  1    1    2    0    0 +9.2913772012e-02 -2.2483512810e-02 +2.9629098069e+01 2.9629252704e+01 4.9935713700e-03 0.0000e+00 0.0000e+00
       11  1    1    2    0    0 -1.1393584005e-02 -1.9645932557e-02 +5.1950343134e-01 5.1999985838e-01 5.1099893000e-04 0.0000e+00 1.0000e+00
<vert_displacement>
387.22220609951086
</vert_displacement>
</event>
<event>
 4   1200 +8.5212000e+10 2.07687700e-02 7.81665300e-03            nan
       50 -1    0    0    0    0 +4.5220337353e-02 -1.4518954260e-03 +2.7558939136e+01 2.7558976727e+01 4.9935713700e-03 0.0000e+00 0.0000e+00
       11 -1    0    0    0    0 -1.0247158968e-18 +3.2900690498e-20 -6.2449960978e-16 5.1100000000e-04 5.1099893000e-04 0.0000e+00 1.0000e+00
       50  1    1    2    0    0 +2.7716083294e-02 +9.6486748778e-03 +2.7155387617e+01 2.7155403934e+01 4.9935713700e-03 0.0000e+00 0.0000e+00
       11  1    1    2    0    0 +1.7504254059e-02 -1.1100570304e-02 +4.0355151924e-01 4.0408379251e-01 5.1099893000e-04 0.0000e+00 1.0000e+00
<vert_displacement>
282.44756971740208
</vert_displacement>
</event>
<event>
 4   1200 +8.5212000e+10 6.60481800e-03 7.81665300e-03            nan
       50 -1    0    0    0    0 -2.2506567298e-02 +7.1264089039e-03 +7.6948471561e+00 7.6948849909e+00 4.9935713700e-03 0.0000e+00 0.0000e+00
       11 -1    0    0    0    0 +1.0959512257e-18 -3.4701855994e-19 -3.7469850736e-16 5.1100000000e-04 5.1099893000e-04 0.0000e+00 1.0000e+00
       50  1    1    2    0    0 -2.5795959303e-02 +4.3686080947e-03 +7.6765094000e+00 7.6765556091e+00 4.9935713700e-03 0.0000e+00 0.0000e+00
       11  1    1    2    0    0 +3.2893920047e-03 +2.7578008092e-03 +1.8337756179e-02 1.8840381807e-02 5.1099893000e-04 0.0000e+00 1.0000e+00
<vert_displacement>
101.07183340224188
</vert_displacement>
</event>
<event>
 4   1200 +8.5212000e+10 2.98764100e-02 7.81665300e-03            nan
       50 -1    0    0    0    0 +2.7705543096e-02 -2.9498134186e-02 +1.2910726286e+01 1.2910790676e+01 4.9935713700e-03 0.0000e+00 0.0000e+00
       11 -1    0    0    0    0 +1.1465548419e-18 -1.2207386969e-18 +5.3429220583e-16 5.1100000000e-04 5.1099893000e-04 0.0000e+00 1.0000e+00
       50  1    1    2    0    0 -2.1401828157e-03 -1.7918213898e-02 +1.1996991166e+01 1.1997005777e+01 4.9935713700e-03 0.0000e+00 0.0000e+00
       11  1    1    2    0    0 +2.9845725912e-02 -1.1579920288e-02 +9.1373511988e-01 9.1429589977e-01 5.1099893000e-04 0.0000e+00 1.0000e+00
<vert_displacement>
258.30461319177698
</vert_displacement>
</event>
<event>
 4   1200 +8.5212000e+10 9.95452900e-03 7.81665300e-03            nan
       50 -1    0    0    0    0 -1.1424677032e-02 -1.7094326413e-02 +1.1824776509e+01 1.1824795439e+01 4.9935713700e-03 0.0000e+00 0.0000e+00
       11 -1    0    0    0    0 -4.0895019171e-19 -6.1189721550e-19 +4.2327188829e-16 5.1100000000e-04 5.1099893000e-04 0.0000e+00 1.0000e+00
       50  1    1    2    0    0 -9.0907139681e-03 -2.5297427406e-02 +1.1751751311e+01 1.1751783116e+01 4.9935713700e-03 0.0000e+00 0.0000e+00
       11  1    1    2    0    0 -2.3339630635e-03 +8.2031009934e-03 +7.3025198535e-02 7.3523322766e-02 5.1099893000e-04 0.0000e+00 1.0000e+00
<vert_displacement>
303.95407728809391
</vert_displacement>
</event>
<event>
 4   1200 +8.5212000e+10 2.14565300e-02 7.81665300e-03            nan
       50 -1    0    0    0    0 -1.2691822288e-03 -1.3179687016e-02 +8.4700158876e+00 8.4700277087e+00 4.9935713700e-03 0.0000e+00 0.0000e+00
       11 -1    0    0    0    0 -7.2782591331e-20 -7.5580302982e-19 +4.8572197979e-16 5.1100000000e-04 5.1099893000e-04 0.0000e+00 1.0000e+00
       50  1    1    2    0    0 +1.4574332748e-02 -2.6138106405e-02 +8.0199137198e+00 8.0199711109e+00 4.9935713700e-03 0.0000e+00 0.0000e+00
       11  1    1    2    0    0 -1.5843514976e-02 +1.2958419389e-02 +4.5010216783e-01 4.5056759782e-01 5.1099893000e-04 0.0000e+00 1.0000e+00
<vert_displacement>
12.935712906625643
</vert_displacement>
</event>
<event>
 4   1200 +8.5212000e+10 9.44862400e-03 7.81665300e-03            nan
       50 -1    0    0    0    0 -1.5383727953e-02 -1.3787015403e-02 +9.2237864334e+00 9.2238109177e+00 4.9935713700e-03 0.0000e+00 0.0000e+00
       11 -1    0    0    0    0 +1.6664949520e-18 +1.4935256033e-18 -9.9919821624e-16 5.1100000000e-04 5.1099893000e-04 0.0000e+00 1.0000e+00
       50  1    1    2    0    0 -2.2281217745e-02 -1.7603176202e-02 +9.1603729846e+00 9.1604183571e+00 4.9935713700e-03 0.0000e+00 0.0000e+00
       11  1    1    2    0    0 +6.8974897924e-03 +3.8161607986e-03 +6.3413448740e-02 6.3903560540e-02 5.1099893000e-04 0.0000e+00 1.0000e+00
<vert_displacement>
351.39300138938313
</vert_displacement>
</event>
<event>
 4   1200 +8.5212000e+10 2.05231300e-02 7.81665300e-03            nan
       50 -1    0    0    0    0 -6.6453228526e-03 -2.4614628070e-03 +9.6991809406e+00 9.6991848149e+00 4.9935713700e-03 0.0000e+00 0.0000e+00
       11 -1    0    0    0    0 -8.7000599449e-19 -3.2225483168e-19 +1.2698172455e-15 5.1100000000e-04 5.1099893000e-04 0.0000e+00 1.0000e+00
       50  1    1    2    0    0 +1.1618545183e-02 -1.0887844412e-02 +9.2945110392e+00 9.2945260196e+00 4.9935713700e-03 0.0000e+00 0.0000e+00
       11  1    1    2    0    0 -1.8263868035e-02 +8.4263816051e-03 +4.0466990139e-01 4.0516979526e-01 5.1099893000e-04 0.0000e+00 1.0000e+00
<vert_displacement>
61.105114885066946
</vert_displacement>
</event>
<event>
 4   1200 +8.5212000e+10 1.17610400e-02 7.81665300e-03            nan
       50 -1    0    0    0    0 -3.2298765093e-02 +3.4384291005e-03 +1.1054849346e+01 1.1054898192e+01 4.9935713700e-03 0.0000e+00 0.0000e+00
       11 -1    0    0    0    0 +1.0136580328e-19 -1.0791097640e-20 -3.4694319762e-17 5.1100000000e-04 5.1099893000e-04 0.0000e+00 1.0000e+00
       50  1    1    2    0    0 -4.0255065546e-02 +1.0094189443e-02 +1.0942733904e+01 1.0942813742e+01 4.9935713700e-03 0.0000e+00 0.0000e+00
       11  1    1    2    0    0 +7.9563004528e-03 -6.6557603429e-03 +1.1211544273e-01 1.1259545054e-01 5.1099893000e-04 0.0000e+00 1.0000e+00
<vert_displacement>
204.21655708475356
</vert_displacement>
</event>
<event>
 4   1200 +8.5212000e+10 2.86501100e-02 7.81665300e-03            nan
       50 -1    0    0    0    0 +5.2487892539e-02 -9.3028691550e-02 +3.9099173492e+01 3.9099319713e+01 4.9935713700e-03 0.0000e+00 0.0000e+00
       11 -1    0    0    0    0 -5.8125242097e-18 +1.0302023870e-17 -4.3298536388e-15 5.1100000000e-04 5.1099893000e-04 0.0000e+00 1.0000e+00
       50  1    1    2    0    0 +6.4199826079e-02 -1.1628847546e-01 +3.8304156737e+01 3.8304387385e+01 4.9935713700e-03 0.0000e+00 0.0000e+00
       11  1    1    2    0    0 -1.1711933541e-02 +2.3259783905e-02 +7.9501675508e-01 7.9544332854e-01 5.1099893000e-04 0.0000e+00 1.0000e+00
<vert_displacement>
21.607757151885025
</vert_displacement>
</event>
<event>
 4   1200 +8.5212000e+10 1.97889200e-02 7.81665300e-03            nan
       50 -1    0    0    0    0 +4.4683951118e-02 -1.1979119394e-02 +1.5261388955e+01 1.5261459889e+01 4.9935713700e-03 0.0000e+00 0.0000e+00
       11 -1    0    0    0    0 +3.5147291395e-18 -9.4224792006e-19 +1.2004231302e-15 5.1100000000e-04 5.1099893000e-04 0.0000e+00 1.0000e+00
       50  1    1    2    0    0 +6.2410809694e-02 -8.0714021526e-03 +1.4893682855e+01 1.4893816642e+01 4.9935713700e-03 0.0000e+00 0.0000e+00
       11  1    1    2    0    0 -1.7726858576e-02 -3.9077172418e-03 +3.6770610035e-01 3.6815424638e-01 5.1099893000e-04 0.0000e+00 1.0000e+00
<vert_displacement>
485.99248889067036
</vert_displacement>
</event>
<event>
 4   1200 +8.5212000e+10 1.04246100e-02 7.81665300e-03            nan
       50 -1    0    0    0    0 -1.0838350951e-02 +3.0422952787e-03 +4.9230797282e+00 4.9230951313e+00 4.9935713700e-03 0.0000e+00 0.0000e+00
       11 -1    0    0    0    0 +9.1657224604e-20 -2.5727930653e-20 -4.1633254581e-17 5.1100000000e-04 5.1099893000e-04 0.0000e+00 1.0000e+00
       50  1    1    2    0    0 -1.9390074415e-02 +5.7169045325e-03 +4.8396978816e+00 4.8397426769e+00 4.9935713700e-03 0.0000e+00 0.0000e+00
       11  1    1    2    0    0 +8.5517234639e-03 -2.6746092538e-03 +8.3381846652e-02 8.3863454376e-02 5.1099893000e-04 0.0000e+00 1.0000e+00
<vert_displacement>
259.44595811067654
</vert_displacement>
</event>
<event>
 4   1200 +8.5212000e+10 2.44672200e-02 7.81665300e-03            nan
       50 -1    0    0    0    0 +3.6894924860e-02 +1.5086086321e-02 +1.1149190662e+01 1.1149263033e+01 4.9935713700e-03 0.0000e+00 0.0000e+00
       11 -1    0    0    0    0 -1.5384577084e-18 -6.2906499683e-19 -4.6490292044e-16 5.1100000000e-04 5.1099893000e-04 0.0000e+00 1.0000e+00
       50  1    1    2    0    0 +5.8723629797e-02 +1.1510501369e-02 +1.0556126806e+01 1.0556297601e+01 4.9935713700e-03 0.0000e+00 0.0000e+00
       11  1    1    2    0    0 -2.1828704937e-02 +3.5755849521e-03 +5.9306385612e-01 5.9347643233e-01 5.1099893000e-04 0.0000e+00 1.0000e+00
<vert_displacement>
126.09744192066567
</vert_displacement>
</event>
<event>
 4   1200 +8.5212000e+10 2.28205500e-02 7.81665300e-03            nan
       50 -1    0    0    0    0 +2.1772848723e-02 -2.6712660299e-02 +1.0778609966e+01 1.0778666215e+01 4.9935713700e-03 0.0000e+00 0.0000e+00
       11 -1    0    0    0    0 +3.5041326190e-19 -4.2991482412e-19 +1.7347146095e-16 5.1100000000e-04 5.1099893000e-04 0.0000e+00 1.0000e+00
       50  1    1    2    0    0 +2.3151905265e-03 -1.2951858415e-02 +1.0269369869e+01 1.0269379511e+01 4.9935713700e-03 0.0000e+00 0.0000e+00
       11  1    1    2    0    0 +1.9457658196e-02 -1.3760801885e-02 +5.0924009779e-01 5.0979770345e-01 5.1099893000e-04 0.0000e+00 1.0000e+00
<vert_displacement>
482.80938872323605
</vert_displacement>
</event>
<event>
 4   1200 +8.5212000e+10 7.15818800e-03 7.81665300e-03            nan
       50 -1    0    0    0    0 +3.8583456439e-02 +2.6375899437e-03 +2.1153777892e+01 2.1153813833e+01 4.9935713700e-03 0.0000e+00 0.0000e+00
       11 -1    0    0    0    0 +3.2652949594e-18 +2.2321766744e-19 +1.7902316354e-15 5.1100000000e-04 5.1099893000e-04 0.0000e+00 1.0000e+00
       50  1    1    2    0    0 +4.3029321563e-02 +1.6092229005e-04 +2.1128000327e+01 2.1128044734e+01 4.9935713700e-03 0.0000e+00 0.0000e+00
       11  1    1    2    0    0 -4.4458651245e-03 +2.4766676537e-03 +2.5777564751e-02 2.6280098245e-02 5.1099893000e-04 0.0000e+00 1.0000e+00
<vert_displacement>
149.46235362038783
</vert_displacement>
</event>
<event>
 4   1200 +8.5212000e+10 3.32756900e-02 7.81665300e-03            nan
       50 -1    0    0    0    0 +6.2910215585e-04 -2.1684671004e-02 +1.1140347124e+01 1.1140369366e+01 4.9935713700e-03 0.0000e+00 0.0000e+00
       11 -1    0    0    0    0 +3.6833223432e-20 -1.2696130902e-18 +6.5225479028e-16 5.1100000000e-04 5.1099893000e-04 0.0000e+00 1.0000e+00
       50  1    1    2    0    0 +2.0835727018e-02 -4.5286821479e-02 +9.9547803371e+00 9.9549064044e+00 4.9935713700e-03 0.0000e+00 0.0000e+00
       11  1    1    2    0    0 -2.0206624862e-02 +2.3602150475e-02 +1.1855667870e+00 1.1859739613e+00 5.1099893000e-04 0.0000e+00 1.0000e+00
<vert_displacement>
181.18378600106473
</vert_displacement>
</event>
<event>
 4   1200 +8.5212000e+10 9.25963700e-03 7.81665300e-03            nan
       50 -1    0    0    0    0 -7.8802501687e-03 +1.1699814201e-02 +5.6872103427e+00 5.6872300289e+00 4.9935713700e-03 0.0000e+00 0.0000e+00
       11 -1    0    0    0    0 +5.8648844518e-19 -8.7075989880e-19 -4.2327122615e-16 5.1100000000e-04 5.1099893000e-04 0.0000e+00 1.0000e+00
       50  1    1    2    0    0 -5.9322647174e-04 +8.5908519243e-03 +5.6270864203e+00 5.6270952251e+00 4.9935713700e-03 0.0000e+00 0.0000e+00
       11  1    1    2    0    0 -7.2870236970e-03 +3.1089622765e-03 +6.0123922329e-02 6.0645803787e-02 5.1099893000e-04 0.0000e+00 1.0000e+00
<vert_displacement>
58.021116661299310
</vert_displacement>
</event>
<event>
 4   1200 +8.5212000e+10 1.63548700e-02 7.81665300e-03            nan
       50 -1    0    0    0    0 -9.6295792085e-03 +5.3186321686e-03 +2.3725967010e+01 2.3725970086e+01 4.9935713700e-03 0.0000e+00 0.0000e+00
       11 -1    0    0    0    0 -2.1403617461e-19 +1.1821697074e-19 +5.2735588001e-16 5.1100000000e-04 5.1099893000e-04 0.0000e+00 1.0000e+00
       50  1    1    2    0    0 -9.0146269955e-03 -1.0300395495e-02 +2.3486215561e+01 2.3486220081e+01 4.9935713700e-03 0.0000e+00 0.0000e+00
       11  1    1    2    0    0 -6.1495221303e-04 +1.5619027663e-02 +2.3975144889e-01 2.4026100507e-01 5.1099893000e-04 0.0000e+00 1.0000e+00
<vert_displacement>
429.78035062891280
</vert_displacement>
</event>
<event>
 4   1200 +8.5212000e+10 8.33963000e-03 7.81665300e-03            nan
       50 -1    0    0    0    0 +1.5360963025e-03 +3.0336237083e-03 +1.3226188055e+00 1.3226326031e+00 4.9935713700e-03 0.0000e+00 0.0000e+00
       11 -1    0    0    0    0 -5.6411883753e-20 -1.1140735624e-19 -4.8572096804e-17 5.1100000000e-04 5.1099893000e-04 0.0000e+00 1.0000e+00
       50  1    1    2    0    0 +5.3428250035e-03 -2.5217228891e-03 +1.2773803789e+00 1.2774038019e+00 4.9935713700e-03 0.0000e+00 0.0000e+00
       11  1    1    2    0    0 -3.8067287010e-03 +5.5553465974e-03 +4.5238426532e-02 4.5739801204e-02 5.1099893000e-04 0.0000e+00 1.0000e+00
<vert_displacement>
303.83523383095530
</vert_displacement>
</event>
<event>
 4   1200 +8.5212000e+10 1.53131100e-02 7.81665300e-03            nan
       50 -1    0    0    0    0 -1.5313931950e-02 -6.1454637094e-03 +6.9613819250e+00 6.9614032726e+00 4.9935713700e-03 0.0000e+00 0.0000e+00
       11 -1    0    0    0    0 -1.5264419001e-19 -6.1255942187e-20 +6.9388744105e-17 5.1100000000e-04 5.1099893000e-04 0.0000e+00 1.0000e+00
       50  1    1    2    0    0 -1.4841270663e-02 +8.5172777094e-03 +6.7498871706e+00 6.7499107075e+00 4.9935713700e-03 0.0000e+00 0.0000e+00
       11  1    1    2    0    0 -4.7266128673e-04 -1.4662741419e-02 +2.1149475432e-01 2.1200356511e-01 5.1099893000e-04 0.0000e+00 1.0000e+00
<vert_displacement>
458.80699900389442
</vert_displacement>
</event>
<event>
 4   1200 +8.5212000e+10 2.74070900e-02 7.81665300e-03            nan
       50 -1    0    0    0    0 -1.9180661769e-02 -1.6985257525e-03 +9.9527984641e+00 9.9528183438e+00 4.9935713700e-03 0.0000e+00 0.0000e+00
       11 -1    0    0    0    0 -1.8721293290e-18 -1.6578468020e-19 +9.7144332845e-16 5.1100000000e-04 5.1099893000e-04 0.0000e+00 1.0000e+00
       50  1    1    2    0    0 -9.6997921780e-03 +2.4167619386e-02 +9.1824263951e+00 9.1824646799e+00 4.9935713700e-03 0.0000e+00 0.0000e+00
       11  1    1    2    0    0 -9.4808695908e-03 -2.5866145138e-02 +7.7037206899e-01 7.7086466397e-01 5.1099893000e-04 0.0000e+00 1.0000e+00
<vert_displacement>
477.60286905296948
</vert_displacement>
</event>
<event>
 4   1200 +8.5212000e+10 9.75317800e-03 7.81665300e-03            nan
       50 -1    0    0    0    0 -2.5269869970e-02 +1.4732812942e-02 +1.0586931251e+01 1.0586972838e+01 4.9935713700e-03 0.0000e+00 0.0000e+00
       11 -1    0    0    0    0 -1.5734216044e-18 +9.1733460461e-19 +6.5919240480e-16 5.1100000000e-04 5.1099893000e-04 0.0000e+00 1.0000e+00
       50  1    1    2    0    0 -2.2789887769e-02 +2.2688290859e-02 +1.0517792221e+01 1.0517842568e+01 4.9935713700e-03 0.0000e+00 0.0000e+00
       11  1    1    2    0    0 -2.4799822013e-03 -7.9554779164e-03 +6.9139029313e-02 6.9641269624e-02 5.1099893000e-04 0.0000e+00 1.0000e+00
<vert_displacement>
437.90248285818501
</vert_displacement>
</event>
<event>
 4   1200 +8.5212000e+10 4.86169100e-02 7.81665300e-03            nan
       50 -1    0    0    0    0 -5.5890516542e-04 -8.2783572372e-03 +1.3455694067e+01 1.3455697552e+01 4.9935713700e-03 0.0000e+00 0.0000e+00
       11 -1    0    0    0    0 -1.2105186200e-20 -1.7929885424e-19 +2.9143348856e-16 5.1100000000e-04 5.1099893000e-04 0.0000e+00 1.0000e+00
       50  1    1    2    0    0 -1.8930220266e-02 +3.8205864921e-02 +1.0530031732e+01 1.0530119242e+01 4.9935713700e-03 0.0000e+00 0.0000e+00
       11  1    1    2    0    0 +1.8371315100e-02 -4.6484222158e-02 +2.9256623348e+00 2.9260893094e+00 5.1099893000e-04 0.0000e+00 1.0000e+00
<vert_displacement>
378.49320216507459
</vert_displacement>
</event>
<event>
 4   1200 +8.5212000e+10 7.16587000e-03 7.81665300e-03            nan
       50 -1    0    0    0    0 +1.2952893140e-02 +4.0261274478e-02 +2.8600611126e+01 2.8600642833e+01 4.9935713700e-03 0.0000e+00 0.0000e+00
       11 -1    0    0    0    0 -1.2507321513e-18 -3.8876311185e-18 -2.7616767542e-15 5.1100000000e-04 5.1099893000e-04 0.0000e+00 1.0000e+00
       50  1    1    2    0    0 +1.5614456882e-02 +4.4614329534e-02 +2.8574734546e+01 2.8574774077e+01 4.9935713700e-03 0.0000e+00 0.0000e+00
       11  1    1    2    0    0 -2.6615637426e-03 -4.3530550563e-03 +2.5876580219e-02 2.6379756133e-02 5.1099893000e-04 0.0000e+00 1.0000e+00
<vert_displacement>
461.44589570991769
</vert_displacement>
</event>
<event>
 4   1200 +8.5212000e+10 1.29452700e-02 7.81665300e-03            nan
       50 -1    0    0    0    0 -8.8758950830e-05 +3.4935956362e-03 +2.3308593278e+00 2.3308672967e+00 4.9935713700e-03 0.0000e+00 0.0000e+00
       11 -1    0    0    0    0 +5.9452260688e-21 -2.3400700049e-19 -1.5612493735e-16 5.1100000000e-04 5.1099893000e-04 0.0000e+00 1.0000e+00
       50  1    1    2    0    0 -6.0448874982e-03 -7.0790789235e-03 +2.1816128833e+00 2.1816384582e+00 4.9935713700e-03 0.0000e+00 0.0000e+00
       11  1    1    2    0    0 +5.9561285474e-03 +1.0572674560e-02 +1.4924644447e-01 1.4973983846e-01 5.1099893000e-04 0.0000e+00 1.0000e+00
<vert_displacement>
104.99692588879969
</vert_displacement>
</event>
<event>
 4   1200 +8.5212000e+10 1.28500800e-02 7.81665300e-03            nan
       50 -1    0    0    0    0 -3.6440189260e-02 +2.2290235257e-02 +1.5176969735e+01 1.5177030672e+01 4.9935713700e-03 0.0000e+00 0.0000e+00
       11 -1    0    0    0    0 -1.7493365967e-18 +1.0700582262e-18 +7.2858097403e-16 5.1100000000e-04 5.1099893000e-04 0.0000e+00 1.0000e+00
       50  1    1    2    0    0 -4.3127917474e-02 +3.1621362208e-02 +1.5038498851e+01 1.5038594766e+01 4.9935713700e-03 0.0000e+00 0.0000e+00
       11  1    1    2    0    0 +6.6877282139e-03 -9.3311269510e-03 +1.3847088484e-01 1.3894690607e-01 5.1099893000e-04 0.0000e+00 1.0000e+00
<vert_displacement>
204.13282903227625
</vert_displacement>
</event>
<event>
 4   1200 +8.5212000e+10 1.29795300e-02 7.81665300e-03            nan
       50 -1    0    0    0    0 -3.6702053658e-02 +7.0635793380e-03 +2.9223936439e+01 2.9223960766e+01 4.9935713700e-03 0.0000e+00 0.0000e+00
       11 -1    0    0    0    0 -3.1546422367e-18 +6.0713402934e-19 +2.5118775389e-15 5.1100000000e-04 5.1099893000e-04 0.0000e+00 1.0000e+00
       50  1    1    2    0    0 -4.3959379437e-02 +1.6424126227e-02 +2.9082797634e+01 2.9082835923e+01 4.9935713700e-03 0.0000e+00 0.0000e+00
       11  1    1    2    0    0 +7.2573257796e-03 -9.3605468890e-03 +1.4113880547e-01 1.4163584344e-01 5.1099893000e-04 0.0000e+00 1.0000e+00
<vert_displacement>
273.96820540058621
</vert_displacement>
</event>
<event>
 4   1200 +8.5212000e+10 1.45727500e-02 7.81665300e-03            nan
       50 -1    0    0    0    0 +2.3631820781e-02 -3.5933373929e-02 +2.1258519544e+01 2.1258563635e+01 4.9935713700e-03 0.0000e+00 0.0000e+00
       11 -1    0    0    0    0 +3.5482266848e-19 -5.3952574132e-19 +3.1918846638e-16 5.1100000000e-04 5.1099893000e-04 0.0000e+00 1.0000e+00
       50  1    1    2    0    0 +2.6874949830e-02 -2.2371700427e-02 +2.1073527608e+01 2.1073557211e+01 4.9935713700e-03 0.0000e+00 0.0000e+00
       11  1    1    2    0    0 -3.2431290490e-03 -1.3561673502e-02 +1.8499193664e-01 1.8551742403e-01 5.1099893000e-04 0.0000e+00 1.0000e+00
<vert_displacement>
5.7960550635038945
</vert_displacement>
</event>
<event>
 4   1200 +8.5212000e+10 8.45151300e-03 7.81665300e-03            nan
       50 -1    0    0    0    0 +3.3284591023e-02 -2.0591592810e-02 +1.1191241036e+01 1.1191310591e+01 4.9935713700e-03 0.0000e+00 0.0000e+00
       11 -1    0    0    0    0 +2.8066707910e-18 -1.7363536791e-18 +9.4368379978e-16 5.1100000000e-04 5.1099893000e-04 0.0000e+00 1.0000e+00
       50  1    1    2    0    0 +3.1913392347e-02 -2.7213225415e-02 +1.1145552205e+01 1.1145632234e+01 4.9935713700e-03 0.0000e+00 0.0000e+00
       11  1    1    2    0    0 +1.3711986763e-03 +6.6216326056e-03 +4.5688831426e-02 4.6189356362e-02 5.1099893000e-04 0.0000e+00 1.0000e+00
<vert_displacement>
360.65724515660077
</vert_displacement>
</event>
<event>
 4   1200 +8.5212000e+10 2.78817700e-02 7.81665300e-03            nan
       50 -1    0    0    0    0 +5.6110596008e-02 -4.0314094434e-02 +3.3255873886e+01 3.3255946032e+01 4.9935713700e-03 0.0000e+00 0.0000e+00
       11 -1    0    0    0    0 -3.1844521769e-18 +2.2879512056e-18 -1.8873750686e-15 5.1100000000e-04 5.1099893000e-04 0.0000e+00 1.0000e+00
       50  1    1    2    0    0 +3.4157260592e-02 -2.1381470574e-02 +3.2502583271e+01 3.2502608636e+01 4.9935713700e-03 0.0000e+00 0.0000e+00
       11  1    1    2    0    0 +2.1953335416e-02 -1.8932623860e-02 +7.5329061428e-01 7.5384839581e-01 5.1099893000e-04 0.0000e+00 1.0000e+00
<vert_displacement>
131.20463494114261
</vert_displacement>
</event>
<event>
 4   1200 +8.5212000e+10 1.59680000e-02 7.81665300e-03            nan
       50 -1    0    0    0    0 +4.1942370706e-02 +2.5080144188e-02 +2.5133433440e+01 2.5133481446e+01 4.9935713700e-03 0.0000e+00 0.0000e+00
       11 -1    0    0    0    0 +1.7369280900e-18 +1.0386252901e-18 +1.0408321181e-15 5.1100000000e-04 5.1099893000e-04 0.0000e+00 1.0000e+00
       50  1    1    2    0    0 +2.9092980661e-02 +3.3486677977e-02 +2.4906297208e+01 2.4906337211e+01 4.9935713700e-03 0.0000e+00 0.0000e+00
       11  1    1    2    0    0 +1.2849390045e-02 -8.4065337892e-03 +2.2713623235e-01 2.2765523451e-01 5.1099893000e-04 0.0000e+00 1.0000e+00
<vert_displacement>
83.362215384926728
</vert_displacement>
</event>
<event>
 4   1200 +8.5212000e+10 5.97696100e-03 7.81665300e-03            nan
       50 -1    0    0    0    0 -7.1519620454e-02 +6.0383568085e-02 +2.8401301986e+01 2.8401456665e+01 4.9935713700e-03 0.0000e+00 0.0000e+00
       11 -1    0    0    0    0 -1.5027034769e-18 +1.2687231439e-18 +5.9674163500e-16 5.1100000000e-04 5.1099893000e-04 0.0000e+00 1.0000e+00
       50  1    1    2    0    0 -7.2844710561e-02 +5.7367581535e-02 +2.8390744814e+01 2.8390896665e+01 4.9935713700e-03 0.0000e+00 0.0000e+00
       11  1    1    2    0    0 +1.3250901079e-03 +3.0159865508e-03 +1.0557172052e-02 1.1070999968e-02 5.1099893000e-04 0.0000e+00 1.0000e+00
<vert_displacement>
225.44126453267020
</vert_displacement>
</event>
<event>
 4   1200 +8.5212000e+10 6.83622800e-03 7.81665300e-03            nan
       50 -1    0    0    0    0 -8.7380322519e-02 -2.5168917404e-02 +2.8973428296e+01 2.8973571422e+01 4.9935713700e-03 0.0000e+00 0.0000e+00
       11 -1    0    0    0    0 -8.5799690635e-18 -2.4713634199e-18 +2.8449324891e-15 5.1100000000e-04 5.1099893000e-04 0.0000e+00 1.0000e+00
       50  1    1    2    0    0 -8.7396878343e-02 -2.9818532573e-02 +2.8952078965e+01 2.8952226663e+01 4.9935713700e-03 0.0000e+00 0.0000e+00
       11  1    1    2    0    0 +1.6555823863e-05 +4.6496151691e-03 +2.1349330758e-02 2.1855759860e-02 5.1099893000e-04 0.0000e+00 1.0000e+00
<vert_displacement>
115.66214603029964
</vert_displacement>
</event>
<event>
 4   1200 +8.5212000e+10 2.38653500e-02 7.81665300e-03            nan
       50 -1    0    0    0    0 +1.6091316431e-03 +9.1942258693e-04 +5.1068974920e+00 5.1069002697e+00 4.9935713700e-03 0.0000e+00 0.0000e+00
       11 -1    0    0    0    0 -7.8709500065e-20 -4.4972884896e-20 -2.4980016409e-16 5.1100000000e-04 5.1099893000e-04 0.0000e+00 1.0000e+00
       50  1    1    2    0    0 -1.0487706148e-02 +2.0881913515e-02 +4.5019491756e+00 4.5020125901e+00 4.9935713700e-03 0.0000e+00 0.0000e+00
       11  1    1    2    0    0 +1.2096837791e-02 -1.9962490928e-02 +6.0494831643e-01 6.0539867955e-01 5.1099893000e-04 0.0000e+00 1.0000e+00
<vert_displacement>
382.48577252295343
</vert_displacement>
</event>
<event>
 4   1200 +8.5212000e+10 1.20453100e-02 7.81665300e-03            nan
       50 -1    0    0    0    0 +5.8142543417e-02 +6.7501059950e-02 +2.8139098035e+01 2.8139239508e+01 4.9935713700e-03 0.0000e+00 0.0000e+00
       11 -1    0    0    0    0 +2.4086916414e-18 +2.7963902047e-18 +1.1657283333e-15 5.1100000000e-04 5.1099893000e-04 0.0000e+00 -1.0000e+00
       50  1    1    2    0    0 +6.1735681118e-02 +5.6949916416e-02 +2.8021050043e+01 2.8021176368e+01 4.9935713700e-03 0.0000e+00 0.0000e+00
       11  1    1    2    0    0 -3.5931377012e-03 +1.0551143534e-02 +1.1804799159e-01 1.1857414013e-01 5.1099893000e-04 0.0000e+00 -1.0000e+00
<vert_displacement>
396.42666778789606
</vert_displacement>
</event>
<event>
 4   1200 +8.5212000e+10 4.37280700e-02 7.81665300e-03            nan
       50 -1    0    0    0    0 -5.2266237990e-03 +1.0359361459e-02 +1.4685680748e+01 1.4685686181e+01 4.9935713700e-03 0.0000e+00 0.0000e+00
       11 -1    0    0    0    0 -1.9756374835e-19 +3.9157864790e-19 +5.5511133905e-16 5.1100000000e-04 5.1099893000e-04 0.0000e+00 1.0000e+00
       50  1    1    2    0    0 -4.7601233363e-02 +1.3895154659e-02 +1.2518756793e+01 1.2518855999e+01 4.9935713700e-03 0.0000e+00 0.0000e+00
       11  1    1    2    0    0 +4.2374609564e-02 -3.5357932001e-03 +2.1669239552e+00 2.1673411817e+00 5.1099893000e-04 0.0000e+00 1.0000e+00
<vert_displacement>
354.58608608570353
</vert_displacement>
</event>
<event>
 4   1200 +8.5212000e+10 2.31942700e-02 7.81665300e-03            nan
       50 -1    0    0    0    0 -8.3410503088e-03 -7.2466989675e-03 +2.7782066772e+00 2.7782331372e+00 4.9935713700e-03 0.0000e+00 0.0000e+00
       11 -1    0    0    0    0 -9.3746597919e-20 -8.1446981998e-20 +3.1224775617e-17 5.1100000000e-04 5.1099893000e-04 0.0000e+00 1.0000e+00
       50  1    1    2    0    0 -2.7002020097e-02 +3.7963248123e-03 +2.1177122287e+00 2.1178936566e+00 4.9935713700e-03 0.0000e+00 0.0000e+00
       11  1    1    2    0    0 +1.8660969788e-02 -1.1043023780e-02 +6.6049444843e-01 6.6085048059e-01 5.1099893000e-04 0.0000e+00 1.0000e+00
<vert_displacement>
75.675236720674505
</vert_displacement>
</event>
<event>
 4   1200 +8.5212000e+10 2.61999400e-02 7.81665300e-03            nan
       50 -1    0    0    0    0 +9.6944794755e-03 -2.2296168293e-02 +8.9010147945e+00 8.9010493994e+00 4.9935713700e-03 0.0000e+00 0.0000e+00
       11 -1    0    0    0    0 +4.1565813935e-19 -9.5596507794e-19 +3.8163774106e-16 5.1100000000e-04 5.1099893000e-04 0.0000e+00 1.0000e+00
       50  1    1    2    0    0 -1.6432273634e-02 -1.6255927107e-02 +8.1980891281e+00 8.1981232342e+00 4.9935713700e-03 0.0000e+00 0.0000e+00
       11  1    1    2    0    0 +2.6126753110e-02 -6.0402411857e-03 +7.0292566636e-01 7.0343716514e-01 5.1099893000e-04 0.0000e+00 1.0000e+00
<vert_displacement>
35.410309055890735
</vert_displacement>
</event>
<event>
 4   1200 +8.5212000e+10 2.58033000e-02 7.81665300e-03            nan
       50 -1    0    0    0    0 -9.4182745092e-02 -4.9810665873e-02 +3.5474472517e+01 3.5474632863e+01 4.9935713700e-03 0.0000e+00 0.0000e+00
       11 -1    0    0    0    0 -1.1421821688e-17 -6.0406876353e-18 +4.3020948174e-15 5.1100000000e-04 5.1099893000e-04 0.0000e+00 1.0000e+00
       50  1    1    2    0    0 -8.9189079811e-02 -2.3814319827e-02 +3.4835928108e+01 3.4836050779e+01 4.9935713700e-03 0.0000e+00 0.0000e+00
       11  1    1    2    0    0 -4.9936652810e-03 -2.5996346046e-02 +6.3854440862e-01 6.3909308368e-01 5.1099893000e-04 0.0000e+00 1.0000e+00
<vert_displacement>
451.59793920392315
</vert_displacement>
</event>
<event>
 4   1200 +8.5212000e+10 1.70806700e-02 7.81665300e-03            nan
       50 -1    0    0    0    0 -1.1320340895e-02 -2.6638715314e-02 +1.6323219186e+01 1.6323245612e+01 4.9935713700e-03 0.0000e+00 0.0000e+00
       11 -1    0    0    0    0 -1.0201854333e-18 -2.4006723452e-18 +1.4710431950e-15 5.1100000000e-04 5.1099893000e-04 0.0000e+00 1.0000e+00
       50  1    1    2    0    0 -2.4550277399e-02 -3.5526424864e-02 +1.6057795240e+01 1.6057854083e+01 4.9935713700e-03 0.0000e+00 0.0000e+00
       11  1    1    2    0    0 +1.3229936504e-02 +8.8877095504e-03 +2.6542394619e-01 2.6590252901e-01 5.1099893000e-04 0.0000e+00 1.0000e+00
<vert_displacement>
410.22314547841233
</vert_displacement>
</event>
<event>
 4   1200 +8.5212000e+10 2.63008500e-02 7.81665300e-03            nan
       50 -1    0    0    0    0 +1.9437418035e-02 -1.7053176847e-02 +1.4057119284e+01 1.4057143953e+01 4.9935713700e-03 0.0000e+00 0.0000e+00
       11 -1    0    0    0    0 -9.5947078918e-20 +8.4177975786e-20 -6.9388821644e-17 5.1100000000e-04 5.1099893000e-04 0.0000e+00 1.0000e+00
       50  1    1    2    0    0 +2.4182643257e-02 -4.1407831309e-02 +1.3371077671e+01 1.3371164588e+01 4.9935713700e-03 0.0000e+00 0.0000e+00
       11  1    1    2    0    0 -4.7452252218e-03 +2.4354654463e-02 +6.8604161277e-01 6.8649036550e-01 5.1099893000e-04 0.0000e+00 1.0000e+00
<vert_displacement>
314.38779376008694
</vert_displacement>
</event>
<event>
 4   1200 +8.5212000e+10 1.37730800e-02 7.81665300e-03            nan
       50 -1    0    0    0    0 +7.0669711042e-03 +1.0506831408e-02 +7.6975607991e+00 7.6975728336e+00 4.9935713700e-03 0.0000e+00 0.0000e+00
       11 -1    0    0    0    0 -5.4148792065e-19 -8.0505809459e-19 -5.8980518383e-16 5.1100000000e-04 5.1099893000e-04 0.0000e+00 1.0000e+00
       50  1    1    2    0    0 -5.3988113503e-03 +6.6605582501e-03 +7.5328135411e+00 7.5328200755e+00 4.9935713700e-03 0.0000e+00 0.0000e+00
       11  1    1    2    0    0 +1.2465782454e-02 +3.8462731577e-03 +1.6474725809e-01 1.6526375803e-01 5.1099893000e-04 0.0000e+00 1.0000e+00
<vert_displacement>
227.18780678551457
</vert_displacement>
</event>
<event>
 4   1200 +8.5212000e+10 4.67351400e-02 7.81665300e-03            nan
       50 -1    0    0    0    0 -1.9689715717e-02 +2.3857688228e-02 +1.3240303466e+01 1.3240340543e+01 4.9935713700e-03 0.0000e+00 0.0000e+00
       11 -1    0    0    0    0 -4.8498513379e-19 +5.8764810438e-19 +3.2612712343e-16 5.1100000000e-04 5.1099893000e-04 0.0000e+00 1.0000e+00
       50  1    1    2    0    0 -4.4702283630e-02 +5.5456151708e-02 +1.0599885845e+01 1.0600126345e+01 4.9935713700e-03 0.0000e+00 0.0000e+00
       11  1    1    2    0    0 +2.5012567913e-02 -3.1598463480e-02 +2.6404176217e+00 2.6407251977e+00 5.1099893000e-04 0.0000e+00 1.0000e+00
<vert_displacement>
31.736114061941954
</vert_displacement>
</event>
<event>
 4   1200 +8.5212000e+10 1.41586700e-02 7.81665300e-03            nan
       50 -1    0    0    0    0 +6.1249537983e-02 +2.0820228077e-02 +1.8800940636e+01 1.8801052596e+01 4.9935713700e-03 0.0000e+00 0.0000e+00
       11 -1    0    0    0    0 +2.9839039983e-18 +1.0143025377e-18 +9.1592857324e-16 5.1100000000e-04 5.1099893000e-04 0.0000e+00 1.0000e+00
       50  1    1    2    0    0 +6.0285126188e-02 +7.3854286355e-03 +1.8627598679e+01 1.8627698364e+01 4.9935713700e-03 0.0000e+00 0.0000e+00
       11  1    1    2    0    0 +9.6441179477e-04 +1.3434799442e-02 +1.7334195695e-01 1.7386523254e-01 5.1099893000e-04 0.0000e+00 1.0000e+00
<vert_displacement>
415.44957524342055
</vert_displacement>
</event>
<event>
 4   1200 +8.5212000e+10 6.99844400e-03 7.81665300e-03            nan
       50 -1    0    0    0    0 -2.0925481748e-03 +4.3130172544e-03 +5.8325564029e+00 5.8325605106e+00 4.9935713700e-03 0.0000e+00 0.0000e+00
       11 -1    0    0    0    0 +1.7177331976e-19 -3.5404742451e-19 -4.7878351765e-16 5.1100000000e-04 5.1099893000e-04 0.0000e+00 1.0000e+00
       50  1    1    2    0    0 -5.0320179398e-03 +8.2137195299e-03 +5.8089294026e+00 5.8089395355e+00 4.9935713700e-03 0.0000e+00 0.0000e+00
       11  1    1    2    0    0 +2.9394697650e-03 -3.9007022755e-03 +2.3627000291e-02 2.4131975124e-02 5.1099893000e-04 0.0000e+00 1.0000e+00
<vert_displacement>
465.37596805068347
</vert_displacement>
</event>
<event>
 4   1200 +8.5212000e+10 5.23987700e-02 7.81665300e-03            nan
       50 -1    0    0    0    0 -1.7300177757e-02 +3.0809843942e-02 +2.0552901091e+01 2.0552932071e+01 4.9935713700e-03 0.0000e+00 0.0000e+00
       11 -1    0    0    0    0 +7.5929473921e-19 -1.3522261303e-18 -9.0205487442e-16 5.1100000000e-04 5.1099893000e-04 0.0000e+00 1.0000e+00
       50  1    1    2    0    0 -2.4161321769e-02 -2.5189007259e-02 +1.7409406352e+01 1.7409442056e+01 4.9935713700e-03 0.0000e+00 0.0000e+00
       11  1    1    2    0    0 +6.8611440120e-03 +5.5998851201e-02 +3.1434947394e+00 3.1440010153e+00 5.1099893000e-04 0.0000e+00 1.0000e+00
<vert_displacement>
283.19230803616301
</vert_displacement>
</event>
<event>
 4   1200 +8.5212000e+10 1.54289400e-02 7.81665300e-03            nan
       50 -1    0    0    0    0 +7.9301594043e-03 -6.4364014309e-04 +2.2760004664e+00 2.2760198506e+00 4.9935713700e-03 0.0000e+00 0.0000e+00
       11 -1    0    0    0    0 +6.8903617618e-19 -5.5924644186e-20 +1.9775726797e-16 5.1100000000e-04 5.1099893000e-04 0.0000e+00 1.0000e+00
       50  1    1    2    0    0 +8.7445703655e-03 -1.5085662039e-02 +2.0433933204e+00 2.0434738173e+00 4.9935713700e-03 0.0000e+00 0.0000e+00
       11  1    1    2    0    0 -8.1441096116e-04 +1.4442021896e-02 +2.3260714605e-01 2.3305703330e-01 5.1099893000e-04 0.0000e+00 1.0000e+00
<vert_displacement>
0.79774428979360335
</vert_displacement>
</event>
<event>
 4   1200 +8.5212000e+10 3.57942700e-02 7.81665300e-03            nan
       50 -1    0    0    0    0 -6.8965794941e-02 -3.2318905719e-02 +2.3841249073e+01 2.3841371250e+01 4.9935713700e-03 0.0000e+00 0.0000e+00
       11 -1    0    0    0    0 -2.1677866040e-18 -1.0158730271e-18 +7.4939671769e-16 5.1100000000e-04 5.1099893000e-04 0.0000e+00 1.0000e+00
       50  1    1    2    0    0 -2.9781832893e-02 -2.9325296804e-02 +2.2541097449e+01 2.2541136752e+01 4.9935713700e-03 0.0000e+00 0.0000e+00
       11  1    1    2    0    0 -3.9183962049e-02 -2.9936089145e-03 +1.3001516232e+00 1.3007454974e+00 5.1099893000e-04 0.0000e+00 1.0000e+00
<vert_displacement>
259.81481327449433
</vert_displacement>
</event>
<event>
 4   1200 +8.5212000e+10 9.20363600e-03 7.81665300e-03            nan
       50 -1    0    0    0    0 -2.1708309625e-03 -3.2399308753e-02 +1.5647560362e+01 1.5647594852e+01 4.9935713700e-03 0.0000e+00 0.0000e+00
       11 -1    0    0    0    0 -3.3115180479e-19 -4.9423883078e-18 +2.3869743632e-15 5.1100000000e-04 5.1099893000e-04 0.0000e+00 1.0000e+00
       50  1    1    2    0    0 -6.3637484311e-03 -3.8767901256e-02 +1.5588839463e+01 1.5588889768e+01 4.9935713700e-03 0.0000e+00 0.0000e+00
       11  1    1    2    0    0 +4.1929174686e-03 +6.3685925031e-03 +5.8720898389e-02 5.9216083583e-02 5.1099893000e-04 0.0000e+00 1.0000e+00
<vert_displacement>
198.97916544625690
</vert_displacement>
</event>
<event>
 4   1200 +8.5212000e+10 2.39648500e-02 7.81665300e-03            nan
       50 -1    0    0    0    0 +9.6156332566e-02 +8.9919542815e-02 +3.7443747546e+01 3.7443979313e+01 4.9935713700e-03 0.0000e+00 0.0000e+00
       11 -1    0    0    0    0 +5.2031817544e-18 +4.8656985146e-18 +2.0261444967e-15 5.1100000000e-04 5.1099893000e-04 0.0000e+00 1.0000e+00
       50  1    1    2    0    0 +1.1819351079e-01 +8.8788310418e-02 +3.6898178475e+01 3.6898474938e+01 4.9935713700e-03 0.0000e+00 0.0000e+00
       11  1    1    2    0    0 -2.2037178226e-02 +1.1312323967e-03 +5.4556907180e-01 5.4601537537e-01 5.1099893000e-04 0.0000e+00 1.0000e+00
<vert_displacement>
44.744637749923392
</vert_displacement>
</event>
<event>
 4   1200 +8.5212000e+10 1.45269800e-02 7.81665300e-03            nan
       50 -1    0    0    0    0 -2.2224744003e-02 +1.6355896052e-02 +8.9782090621e+00 8.9782528563e+00 4.9935713700e-03 0.0000e+00 0.0000e+00
       11 -1    0    0    0    0 +2.6623610278e-18 -1.9593161666e-18 -1.0755234752e-15 5.1100000000e-04 5.1099893000e-04 0.0000e+00 1.0000e+00
       50  1    1    2    0    0 -2.7603134687e-02 +3.6880306795e-03 +8.7922541437e+00 8.7922996650e+00 4.9935713700e-03 0.0000e+00 0.0000e+00
       11  1    1    2    0    0 +5.3783906837e-03 +1.2667865373e-02 +1.8595491833e-01 1.8646419139e-01 5.1099893000e-04 0.0000e+00 1.0000e+00
<vert_displacement>
75.892143773405110
</vert_displacement>
</event>
<event>
 4   1200 +8.5212000e+10 3.10687300e-02 7.81665300e-03            nan
       50 -1    0    0    0    0 -2.7625850922e-02 +1.6863623574e-02 +1.4193065602e+01 1.4193103385e+01 4.9935713700e-03 0.0000e+00 0.0000e+00
       11 -1    0    0    0    0 +3.5115747668e-19 -2.1435674573e-19 -1.8041077240e-16 5.1100000000e-04 5.1099893000e-04 0.0000e+00 1.0000e+00
       50  1    1    2    0    0 -3.3223327819e-02 +4.5415995403e-02 +1.3203839503e+01 1.3203960352e+01 4.9935713700e-03 0.0000e+00 0.0000e+00
       11  1    1    2    0    0 +5.5974768964e-03 -2.8552371830e-02 +9.8922609904e-01 9.8965403340e-01 5.1099893000e-04 0.0000e+00 1.0000e+00
<vert_displacement>
249.98098045573104
</vert_displacement>
</event>
<event>
 4   1200 +8.5212000e+10 1.92012400e-02 7.81665300e-03            nan
       50 -1    0    0    0    0 +5.1232803969e-03 -5.5612245225e-04 +2.9103115321e+00 2.9103203787e+00 4.9935713700e-03 0.0000e+00 0.0000e+00
       11 -1    0    0    0    0 +2.7484049981e-19 -2.9833419390e-20 +1.5612486807e-16 5.1100000000e-04 5.1099893000e-04 0.0000e+00 1.0000e+00
       50  1    1    2    0    0 -1.1292197618e-02 -1.0294290551e-02 +2.5215602388e+00 2.5216114808e+00 4.9935713700e-03 0.0000e+00 0.0000e+00
       11  1    1    2    0    0 +1.6415478015e-02 +9.7381680988e-03 +3.8875129325e-01 3.8921989795e-01 5.1099893000e-04 0.0000e+00 1.0000e+00
<vert_displacement>
118.57385151164436
</vert_displacement>
</event>
<event>
 4   1200 +8.5212000e+10 7.44702900e-03 7.81665300e-03            nan
       50 -1    0    0    0    0 -9.7607943640e-03 -4.3614030258e-03 +4.0302737046e+00 4.0302909777e+00 4.9935713700e-03 0.0000e+00 0.0000e+00
       11 -1    0    0    0    0 +1.2939874573e-18 +5.7819072925e-19 -5.3429295082e-16 5.1100000000e-04 5.1099893000e-04 0.0000e+00 1.0000e+00
       50  1    1    2    0    0 -4.2972619240e-03 -5.5384976910e-03 +4.0001902284e+00 4.0001994876e+00 4.9935713700e-03 0.0000e+00 0.0000e+00
       11  1    1    2    0    0 -5.4635324400e-03 +1.1770946652e-03 +3.0083476192e-02 3.0602490066e-02 5.1099893000e-04 0.0000e+00 1.0000e+00
<vert_displacement>
11.098089558132569
</vert_displacement>
</event>
<event>
 4   1200 +8.5212000e+10 2.09140400e-02 7.81665300e-03            nan
       50 -1    0    0    0    0 +9.4427166577e-03 -3.6243331722e-02 +1.7602639391e+01 1.7602679944e+01 4.9935713700e-03 0.0000e+00 0.0000e+00
       11 -1    0    0    0    0 -7.8167770467e-19 +3.0002599227e-18 -1.4571644214e-15 5.1100000000e-04 5.1099893000e-04 0.0000e+00 1.0000e+00
       50  1    1    2    0    0 -9.7811825620e-03 -4.2560212826e-02 +1.7189323469e+01 1.7189379666e+01 4.9935713700e-03 0.0000e+00 0.0000e+00
       11  1    1    2    0    0 +1.9223899220e-02 +6.3168811049e-03 +4.1331592206e-01 4.1381127805e-01 5.1099893000e-04 0.0000e+00 1.0000e+00
<vert_displacement>
485.04921318980763
</vert_displacement>
</event>
<event>
 4   1200 +8.5212000e+10 1.08558900e-02 7.81665300e-03            nan
       50 -1    0    0    0    0 -6.4793693056e-03 +8.6313080717e-04 +1.5425324611e+01 1.5425326804e+01 4.9935713700e-03 0.0000e+00 0.0000e+00
       11 -1    0    0    0    0 -3.7890643637e-19 +5.0474946378e-20 +9.0205612652e-16 5.1100000000e-04 5.1099893000e-04 0.0000e+00 1.0000e+00
       50  1    1    2    0    0 +2.3596762252e-03 -3.0743543907e-03 +1.5333867919e+01 1.5333869222e+01 4.9935713700e-03 0.0000e+00 0.0000e+00
       11  1    1    2    0    0 -8.8390455308e-03 +3.9374851979e-03 +9.1456691811e-02 9.1968582203e-02 5.1099893000e-04 0.0000e+00 1.0000e+00
<vert_displacement>
491.12226008188583
</vert_displacement>
</event>
<event>
 4   1200 +8.5212000e+10 9.26518800e-03 7.81665300e-03            nan
       50 -1    0    0    0    0 +2.2013174005e-03 -4.0113472111e-03 +9.1842609293e+00 9.1842634266e+00 4.9935713700e-03 0.0000e+00 0.0000e+00
       11 -1    0    0    0    0 -1.4469312575e-19 +2.6366682348e-19 -6.0368369472e-16 5.1100000000e-04 5.1099893000e-04 0.0000e+00 1.0000e+00
       50  1    1    2    0    0 -4.8601908116e-03 -7.3386388004e-03 +9.1242681037e+00 9.1242737158e+00 4.9935713700e-03 0.0000e+00 0.0000e+00
       11  1    1    2    0    0 +7.0615082121e-03 +3.3272915892e-03 +5.9992825567e-02 6.0500710797e-02 5.1099893000e-04 0.0000e+00 1.0000e+00
<vert_displacement>
486.59160811611218
</vert_displacement>
</event>
<event>
 4   1200 +8.5212000e+10 9.39510100e-03 7.81665300e-03            nan
       50 -1    0    0    0    0 +3.5203587071e-02 +3.2590614616e-02 +1.6443278988e+01 1.6443349727e+01 4.9935713700e-03 0.0000e+00 0.0000e+00
       11 -1    0    0    0    0 +4.4269351057e-18 +4.0983475823e-18 +2.0677815831e-15 5.1100000000e-04 5.1099893000e-04 0.0000e+00 1.0000e+00
       50  1    1    2    0    0 +3.7972312686e-02 +3.9877496572e-02 +1.6381051892e+01 1.6381145202e+01 4.9935713700e-03 0.0000e+00 0.0000e+00
       11  1    1    2    0    0 -2.7687256151e-03 -7.2868819558e-03 +6.2227095971e-02 6.2715525056e-02 5.1099893000e-04 0.0000e+00 1.0000e+00
<vert_displacement>
440.89200976781984
</vert_displacement>
</event>
<event>
 4   1200 +8.5212000e+10 7.17198700e-03 7.81665300e-03            nan
       50 -1    0    0    0    0 +3.4786684185e-02 -5.4454311518e-02 +2.7244066139e+01 2.7244143226e+01 4.9935713700e-03 0.0000e+00 0.0000e+00
       11 -1    0    0    0    0 -5.4931546200e-19 +8.5988636141e-19 -4.3021021199e-16 5.1100000000e-04 5.1099893000e-04 0.0000e+00 1.0000e+00
       50  1    1    2    0    0 +3.9705414889e-02 -5.2995101004e-02 +2.7218106313e+01 2.7218187324e+01 4.9935713700e-03 0.0000e+00 0.0000e+00
       11  1    1    2    0    0 -4.9187307039e-03 -1.4592105142e-03 +2.5959826442e-02 2.6466902272e-02 5.1099893000e-04 0.0000e+00 1.0000e+00
<vert_displacement>
64.836788748700954
</vert_displacement>
</event>
<event>
 4   1200 +8.5212000e+10 4.39154000e-02 7.81665300e-03            nan
       50 -1    0    0    0    0 +2.6929112692e-02 -3.8649847035e-02 +1.4999636982e+01 1.4999711781e+01 4.9935713700e-03 0.0000e+00 0.0000e+00
       11 -1    0    0    0    0 -4.7338337037e-19 +6.7942063531e-19 -2.6367666808e-16 5.1100000000e-04 5.1099893000e-04 0.0000e+00 1.0000e+00
       50  1    1    2    0    0 +6.6468582520e-02 -2.9104850990e-02 +1.2819502401e+01 1.2819708729e+01 4.9935713700e-03 0.0000e+00 0.0000e+00
       11  1    1    2    0    0 -3.9539469828e-02 -9.5449960447e-03 +2.1801345816e+00 2.1805140521e+00 5.1099893000e-04 0.0000e+00 1.0000e+00
<vert_displacement>
332.10298275710426
</vert_displacement>
</event>
<event>
 4   1200 +8.5212000e+10 7.93166900e-03 7.81665300e-03            nan
       50 -1    0    0    0    0 -2.0631354274e-03 +1.8498929080e-03 +6.6033134587e+00 6.6033159283e+00 4.9935713700e-03 0.0000e+00 0.0000e+00
       11 -1    0    0    0    0 +1.0189523842e-19 -9.1363502565e-20 -3.2612798477e-16 5.1100000000e-04 5.1099893000e-04 0.0000e+00 1.0000e+00
       50  1    1    2    0    0 -6.6513309355e-03 -2.2614046284e-03 +6.5659398566e+00 6.5659455138e+00 4.9935713700e-03 0.0000e+00 0.0000e+00
       11  1    1    2    0    0 +4.5881955082e-03 +4.1112975364e-03 +3.7373602110e-02 3.7881414441e-02 5.1099893000e-04 0.0000e+00 1.0000e+00
<vert_displacement>
231.87216177760811
</vert_displacement>
</event>
<event>
 4   1200 +8.5212000e+10 2.64342400e-02 7.81665300e-03            nan
       50 -1    0    0    0    0 -4.6121705919e-02 -2.2190167464e-02 +1.6414984411e+01 1.6415064964e+01 4.9935713700e-03 0.0000e+00 0.0000e+00
       11 -1    0    0    0    0 -3.5483333389e-18 -1.7071812380e-18 +1.2628725517e-15 5.1100000000e-04 5.1099893000e-04 0.0000e+00 1.0000e+00
       50  1    1    2    0    0 -2.7623745830e-02 -4.1246295406e-02 +1.5726759706e+01 1.5726838847e+01 4.9935713700e-03 0.0000e+00 0.0000e+00
       11  1    1    2    0    0 -1.8497960089e-02 +1.9056127942e-02 +6.8822470500e-01 6.8873711692e-01 5.1099893000e-04 0.0000e+00 1.0000e+00
<vert_displacement>
263.86892911608385
</vert_displacement>
</event>
<event>
 4   1200 +8.5212000e+10 2.95493500e-02 7.81665300e-03            nan
       50 -1    0    0    0    0 -4.2221476542e-03 -8.9588779289e-03 +6.9248431573e+00 6.9248520401e+00 4.9935713700e-03 0.0000e+00 0.0000e+00
       11 -1    0    0    0    0 -2.9614971477e-20 -6.2839326349e-20 +4.8572207651e-17 5.1100000000e-04 5.1099893000e-04 0.0000e+00 1.0000e+00
       50  1    1    2    0    0 -1.6683869395e-02 +1.8326486620e-02 +5.9599044036e+00 5.9599580239e+00 4.9935713700e-03 0.0000e+00 0.0000e+00
       11  1    1    2    0    0 +1.2461721741e-02 -2.7285364549e-02 +9.6493875374e-01 9.6540501615e-01 5.1099893000e-04 0.0000e+00 1.0000e+00
<vert_displacement>
487.42102763233424
</vert_displacement>
</event>
<event>
 4   1200 +8.5212000e+10 1.54707400e-02 7.81665300e-03            nan
       50 -1    0    0    0    0 -7.3049888894e-03 +1.6521202134e-02 +9.5026240406e+00 9.5026425223e+00 4.9935713700e-03 0.0000e+00 0.0000e+00
       11 -1    0    0    0    0 +2.3470273549e-19 -5.3081139383e-19 -3.0531078013e-16 5.1100000000e-04 5.1099893000e-04 0.0000e+00 1.0000e+00
       50  1    1    2    0    0 -2.1390928088e-02 +1.2783716125e-02 +9.2879536192e+00 9.2879883916e+00 4.9935713700e-03 0.0000e+00 0.0000e+00
       11  1    1    2    0    0 +1.4085939198e-02 +3.7374860082e-03 +2.1467042148e-01 2.1516513068e-01 5.1099893000e-04 0.0000e+00 1.0000e+00
<vert_displacement>
267.06860040319725
</vert_displacement>
</event>
<event>
 4   1200 +8.5212000e+10 1.78026500e-02 7.81665300e-03            nan
       50 -1    0    0    0    0 +3.7969683535e-02 +1.7120806940e-02 +2.5797301401e+01 2.5797335508e+01 4.9935713700e-03 0.0000e+00 0.0000e+00
       11 -1    0    0    0    0 +4.6979697114e-19 +2.1183487707e-19 +3.1918870355e-16 5.1100000000e-04 5.1099893000e-04 0.0000e+00 1.0000e+00
       50  1    1    2    0    0 +3.8515747555e-02 -1.3129597192e-04 +2.5508353463e+01 2.5508383030e+01 4.9935713700e-03 0.0000e+00 0.0000e+00
       11  1    1    2    0    0 -5.4606402006e-04 +1.7252102912e-02 +2.8894793846e-01 2.8946347870e-01 5.1099893000e-04 0.0000e+00 1.0000e+00
<vert_displacement>
445.12845478926522
</vert_displacement>
</event>
<event>
 4   1200 +8.5212000e+10 1.95429900e-02 7.81665300e-03            nan
       50 -1    0    0    0    0 +3.8509474583e-03 -6.5482696449e-02 +3.3601421200e+01 3.3601485598e+01 4.9935713700e-03 0.0000e+00 0.0000e+00
       11 -1    0    0    0    0 +1.5904842100e-21 -2.7045083283e-20 +1.3877761364e-17 5.1100000000e-04 5.1099893000e-04 0.0000e+00 1.0000e+00
       50  1    1    2    0    0 +6.5219149079e-03 -8.3493375052e-02 +3.3248360070e+01 3.3248465919e+01 4.9935713700e-03 0.0000e+00 0.0000e+00
       11  1    1    2    0    0 -2.6709674496e-03 +1.8010678603e-02 +3.5306112984e-01 3.5353067920e-01 5.1099893000e-04 0.0000e+00 1.0000e+00
<vert_displacement>
197.15595560268088
</vert_displacement>
</event>
<event>
 4   1200 +8.5212000e+10 5.51682100e-03 7.81665300e-03            nan
       50 -1    0    0    0    0 +2.9686551991e-02 -1.1058954372e-02 +2.0451574978e+01 2.0451600124e+01 4.9935713700e-03 0.0000e+00 0.0000e+00
       11 -1    0    0    0    0 +3.8677104178e-18 -1.4408151222e-18 +2.6645320625e-15 5.1100000000e-04 5.1099893000e-04 0.0000e+00 1.0000e+00
       50  1    1    2    0    0 +2.7830585086e-02 -1.2499608858e-02 +2.0446194165e+01 2.0446217536e+01 4.9935713700e-03 0.0000e+00 0.0000e+00
       11  1    1    2    0    0 +1.8559669054e-03 +1.4406544857e-03 +5.3808132631e-03 5.8935871742e-03 5.1099893000e-04 0.0000e+00 1.0000e+00
<vert_displacement>
397.56411326079962
</vert_displacement>
</event>
<event>
 4   1200 +8.5212000e+10 8.02926400e-03 7.81665300e-03            nan
       50 -1    0    0    0    0 +2.8168420127e-02 +2.7352455379e-02 +1.9002172019e+01 1.9002213240e+01 4.9935713700e-03 0.0000e+00 0.0000e+00
       11 -1    0    0    0    0 -1.3989025850e-18 -1.3583800711e-18 -9.4368755643e-16 5.1100000000e-04 5.1099893000e-04 0.0000e+00 1.0000e+00
       50  1    1    2    0    0 +2.2985590478e-02 +3.0938624599e-02 +1.8963411931e+01 1.8963451757e+01 4.9935713700e-03 0.0000e+00 0.0000e+00
       11  1    1    2    0    0 +5.1828296489e-03 -3.5861692203e-03 +3.8760088314e-02 3.9272482719e-02 5.1099893000e-04 0.0000e+00 1.0000e+00
<vert_displacement>
149.90044347069775
</vert_displacement>
</event>
<event>
 4   1200 +8.5212000e+10 1.33626300e-02 7.81665300e-03            nan
       50 -1    0    0    0    0 +1.4117102623e-02 -2.0922503939e-02 +9.0801591948e+00 9.0801956467e+00 4.9935713700e-03 0.0000e+00 0.0000e+00
       11 -1    0    0    0    0 +2.3733585828e-19 -3.5174784532e-19 +1.5265507614e-16 5.1100000000e-04 5.1099893000e-04 0.0000e+00 1.0000e+00
       50  1    1    2    0    0 +1.3015050996e-02 -8.2058646973e-03 +8.9272822189e+00 8.9272968741e+00 4.9935713700e-03 0.0000e+00 0.0000e+00
       11  1    1    2    0    0 +1.1020516270e-03 -1.2716639242e-02 +1.5287697592e-01 1.5340977256e-01 5.1099893000e-04 0.0000e+00 1.0000e+00
<vert_displacement>
297.39116282169056
</vert_displacement>
</event>
<event>
 4   1200 +8.5212000e+10 2.17945800e-02 7.81665300e-03            nan
       50 -1    0    0    0    0 -7.3620075692e-03 -1.0969931270e-03 +4.2739978989e+00 4.2740072974e+00 4.9935713700e-03 0.0000e+00 0.0000e+00
       11 -1    0    0    0    0 +4.5418746125e-19 +6.7677263120e-20 -2.6367756849e-16 5.1100000000e-04 5.1099893000e-04 0.0000e+00 1.0000e+00
       50  1    1    2    0    0 -1.8013207334e-02 -1.8789390502e-02 +3.7749464813e+00 3.7750395216e+00 4.9935713700e-03 0.0000e+00 0.0000e+00
       11  1    1    2    0    0 +1.0651199765e-02 +1.7692397375e-02 +4.9905141756e-01 4.9947877580e-01 5.1099893000e-04 0.0000e+00 1.0000e+00
<vert_displacement>
168.62957419525506
</vert_displacement>
</event>
<event>
 4   1200 +8.5212000e+10 1.49559300e-02 7.81665300e-03            nan
       50 -1    0    0    0    0 +2.3770408689e-02 -4.6278548217e-03 +1.3461751285e+01 1.3461773993e+01 4.9935713700e-03 0.0000e+00 0.0000e+00
       11 -1    0    0    0    0 +1.4702997276e-18 -2.8625227999e-19 +8.3266592116e-16 5.1100000000e-04 5.1099893000e-04 0.0000e+00 1.0000e+00
       50  1    1    2    0    0 +9.3389866126e-03 -3.9156148940e-03 +1.3264404392e+01 1.3264409197e+01 4.9935713700e-03 0.0000e+00 0.0000e+00
       11  1    1    2    0    0 +1.4431422076e-02 -7.1223992765e-04 +1.9734689352e-01 1.9787579623e-01 5.1099893000e-04 0.0000e+00 1.0000e+00
<vert_displacement>
405.27051697593424
</vert_displacement>
</event>
<event>
 4   1200 +8.5212000e+10 2.91473600e-02 7.81665300e-03            nan
       50 -1    0    0    0    0 +3.1336365411e-03 +2.9166771050e-03 +1.4898562924e+01 1.4898564376e+01 4.9935713700e-03 0.0000e+00 0.0000e+00
       11 -1    0    0    0    0 -7.4432850065e-20 -6.9279441568e-20 -3.5388357449e-16 5.1100000000e-04 5.1099893000e-04 0.0000e+00 1.0000e+00
       50  1    1    2    0    0 -2.0619330912e-02 +1.9148818049e-02 +1.4042371992e+01 1.4042401075e+01 4.9935713700e-03 0.0000e+00 0.0000e+00
       11  1    1    2    0    0 +2.3752967453e-02 -1.6232140944e-02 +8.5619093208e-01 8.5667430168e-01 5.1099893000e-04 0.0000e+00 1.0000e+00
<vert_displacement>
98.947275789456256
</vert_displacement>
</event>
<event>
 4   1200 +8.5212000e+10 1.37634000e-02 7.81665300e-03            nan
       50 -1    0    0    0    0 +5.6304261969e-02 -6.1257315760e-02 +6.2826722193e+01 6.2826777484e+01 4.9935713700e-03 0.0000e+00 0.0000e+00
       11 -1    0    0    0    0 -8.3079369584e-18 +9.0387814310e-18 -9.2703541264e-15 5.1099999999e-04 5.1099893000e-04 0.0000e+00 1.0000e+00
       50  1    1    2    0    0 +6.4520504950e-02 -5.1374170367e-02 +6.2665354077e+01 6.2665408550e+01 4.9935713700e-03 0.0000e+00 0.0000e+00
       11  1    1    2    0    0 -8.2162429808e-03 -9.8831453933e-03 +1.6136811547e-01 1.6187993397e-01 5.1099893000e-04 0.0000e+00 1.0000e+00
<vert_displacement>
370.54001995222643
</vert_displacement>
</event>
<event>
 4   1200 +8.5212000e+10 1.42498900e-02 7.81665300e-03            nan
       50 -1    0    0    0    0 +7.1747231706e-03 -7.8014954046e-03 +3.6982313857e+00 3.6982499453e+00 4.9935713700e-03 0.0000e+00 0.0000e+00
       11 -1    0    0    0    0 -5.3173669036e-19 +5.7818834924e-19 -2.7408518356e-16 5.1100000000e-04 5.1099893000e-04 0.0000e+00 1.0000e+00
       50  1    1    2    0    0 +2.0004635202e-02 -5.3513556382e-03 +3.5147353873e+00 3.5147999375e+00 4.9935713700e-03 0.0000e+00 0.0000e+00
       11  1    1    2    0    0 -1.2829912032e-02 -2.4501397664e-03 +1.8349599847e-01 1.8396100783e-01 5.1099893000e-04 0.0000e+00 1.0000e+00
<vert_displacement>
195.57444605349576
</vert_displacement>
</event>
<event>
 4   1200 +8.5212000e+10 3.87285300e-02 7.81665300e-03            nan
       50 -1    0    0    0    0 -6.7892438894e-03 +1.7123199910e-02 +1.4329951949e+01 1.4329964658e+01 4.9935713700e-03 0.0000e+00 0.0000e+00
       11 -1    0    0    0    0 -4.2080077785e-19 +1.0613046105e-18 +8.8817768593e-16 5.1100000000e-04 5.1099893000e-04 0.0000e+00 1.0000e+00
       50  1    1    2    0    0 -3.7590944873e-02 +3.7042226234e-02 +1.2701225964e+01 1.2701336588e+01 4.9935713700e-03 0.0000e+00 0.0000e+00
       11  1    1    2    0    0 +3.0801700984e-02 -1.9919026324e-02 +1.6287259857e+00 1.6291390702e+00 5.1099893000e-04 0.0000e+00 1.0000e+00
<vert_displacement>
174.16350030926418
</vert_displacement>
</event>
<event>
 4   1200 +8.5212000e+10 8.60081500e-03 7.81665300e-03            nan
       50 -1    0    0    0    0 +2.2460393568e-02 +2.3589300721e-02 +1.9876162507e+01 1.9876189822e+01 4.9935713700e-03 0.0000e+00 0.0000e+00
       11 -1    0    0    0    0 +1.4113898578e-18 +1.4823293140e-18 +1.2489992256e-15 5.1100000000e-04 5.1099893000e-04 0.0000e+00 1.0000e+00
       50  1    1    2    0    0 +2.2323118032e-02 +1.6529977957e-02 +1.9828070551e+01 1.9828090636e+01 4.9935713700e-03 0.0000e+00 0.0000e+00
       11  1    1    2    0    0 +1.3727553593e-04 +7.0593227641e-03 +4.8091955719e-02 4.8610186250e-02 5.1099893000e-04 0.0000e+00 1.0000e+00
<vert_displacement>
411.18075029706137
</vert_displacement>
</event>
<event>
 4   1200 +8.5212000e+10 5.16214200e-03 7.81665300e-03            nan
       50 -1    0    0    0    0 +2.0766462293e-03 -2.3158197474e-03 +1.1055712063e+00 1.1055868593e+00 4.9935713700e-03 0.0000e+00 0.0000e+00
       11 -1    0    0    0    0 +1.4336957965e-19 -1.5988188023e-19 +7.6327530844e-17 5.1100000000e-04 5.1099893000e-04 0.0000e+00 1.0000e+00
       50  1    1    2    0    0 +1.7480842142e-03 -1.0450020907e-03 +1.1038959813e+00 1.1039091544e+00 4.9935713700e-03 0.0000e+00 0.0000e+00
       11  1    1    2    0    0 +3.2856201513e-04 -1.2708176567e-03 +1.6752250153e-03 2.1887049305e-03 5.1099893000e-04 0.0000e+00 1.0000e+00
<vert_displacement>
320.68331803513712
</vert_displacement>
</event>
<event>
 4   1200 +8.5212000e+10 1.57426900e-02 7.81665300e-03            nan
       50 -1    0    0    0    0 +1.2026408662e-02 +1.0556094813e-02 +6.8926625657e+00 6.8926829498e+00 4.9935713700e-03 0.0000e+00 0.0000e+00
       11 -1    0    0    0    0 -8.1117175259e-19 -7.1200024637e-19 -4.6490463868e-16 5.1100000000e-04 5.1099893000e-04 0.0000e+00 1.0000e+00
       50  1    1    2    0    0 +4.5059793437e-03 +2.3329520995e-02 +6.6671364815e+00 6.6671806912e+00 4.9935713700e-03 0.0000e+00 0.0000e+00
       11  1    1    2    0    0 +7.5204293180e-03 -1.2773426182e-02 +2.2552608420e-01 2.2601325856e-01 5.1099893000e-04 0.0000e+00 1.0000e+00
<vert_displacement>
173.30092701271977
</vert_displacement>
</event>
<event>
 4   1200 +8.5212000e+10 8.70547300e-03 7.81665300e-03            nan
       50 -1    0    0    0    0 -6.5860032052e-02 -3.8991148182e-02 +2.5004448802e+01 2.5004566437e+01 4.9935713700e-03 0.0000e+00 0.0000e+00
       11 -1    0    0    0    0 -7.5299151256e-18 -4.4579394712e-18 +2.8588108960e-15 5.1100000000e-04 5.1099893000e-04 0.0000e+00 1.0000e+00
       50  1    1    2    0    0 -7.0848902846e-02 -3.3950224752e-02 +2.4954587878e+01 2.4954712046e+01 4.9935713700e-03 0.0000e+00 0.0000e+00
       11  1    1    2    0    0 +4.9888707936e-03 -5.0409234305e-03 +4.9860924052e-02 5.0365390975e-02 5.1099893000e-04 0.0000e+00 1.0000e+00
<vert_displacement>
410.63688836686430
</vert_displacement>
</event>
<event>
 4   1200 +8.5212000e+10 6.13303400e-03 7.81665300e-03            nan
       50 -1    0    0    0    0 +1.1414423909e-02 -1.3845320858e-02 +1.4266225622e+01 1.4266237780e+01 4.9935713700e-03 0.0000e+00 0.0000e+00
       11 -1    0    0    0    0 -3.4421239280e-19 +4.1751831361e-19 -4.3021108174e-16 5.1100000000e-04 5.1099893000e-04 0.0000e+00 1.0000e+00
       50  1    1    2    0    0 +1.4601806816e-02 -1.5400272771e-02 +1.4253804851e+01 1.4253821524e+01 4.9935713700e-03 0.0000e+00 0.0000e+00
       11  1    1    2    0    0 -3.1873829064e-03 +1.5549519129e-03 +1.2420770931e-02 1.2927256309e-02 5.1099893000e-04 0.0000e+00 1.0000e+00
<vert_displacement>
391.31919701019888
</vert_displacement>
</event>
<event>
 4   1200 +8.5212000e+10 2.36160900e-02 7.81665300e-03            nan
       50 -1    0    0    0    0 +9.7533897893e-04 +3.7132868533e-03 +2.2885933107e+00 2.2886019788e+00 4.9935713700e-03 0.0000e+00 0.0000e+00
       11 -1    0    0    0    0 -7.9843645350e-20 -3.0397878584e-19 -1.8734987179e-16 5.1100000000e-04 5.1099893000e-04 0.0000e+00 1.0000e+00
       50  1    1    2    0    0 +3.8306132604e-03 -2.0466370342e-02 +1.4746051907e+00 1.4747606416e+00 4.9935713700e-03 0.0000e+00 0.0000e+00
       11  1    1    2    0    0 -2.8552742815e-03 +2.4179657195e-02 +8.1398812005e-01 8.1435233721e-01 5.1099893000e-04 0.0000e+00 1.0000e+00
<vert_displacement>
345.68528298329375
</vert_displacement>
</event>
<event>
 4   1200 +8.5212000e+10 1.63622900e-02 7.81665300e-03            nan
       50 -1    0    0    0    0 +1.9168791819e-02 -9.9789839623e-03 +7.5786115770e+00 7.5786440339e+00 4.9935713700e-03 0.0000e+00 0.0000e+00
       11 -1    0    0    0    0 +1.0179385622e-18 -5.2992346531e-19 +4.0245421020e-16 5.1100000000e-04 5.1099893000e-04 0.0000e+00 1.0000e+00
       50  1    1    2    0    0 +2.2180802924e-02 -2.4807824686e-02 +7.3330230493e+00 7.3331002579e+00 4.9935713700e-03 0.0000e+00 0.0000e+00
       11  1    1    2    0    0 -3.0120111042e-03 +1.4828840724e-02 +2.4558852770e-01 2.4605477599e-01 5.1099893000e-04 0.0000e+00 1.0000e+00
<vert_displacement>
454.06609604944680
</vert_displacement>
</event>
<event>
 4   1200 +8.5212000e+10 1.84492000e-02 7.81665300e-03            nan
       50 -1    0    0    0    0 -6.9841232644e-03 +1.0834215921e-02 +6.9973352165e+00 6.9973488712e+00 4.9935713700e-03 0.0000e+00 0.0000e+00
       11 -1    0    0    0    0 +6.2332024911e-19 -9.6693398888e-19 -6.2449939171e-16 5.1100000000e-04 5.1099893000e-04 0.0000e+00 1.0000e+00
       50  1    1    2    0    0 -1.9850218780e-02 -1.5616165641e-03 +6.6736458836e+00 6.6736774559e+00 4.9935713700e-03 0.0000e+00 0.0000e+00
       11  1    1    2    0    0 +1.2866095516e-02 +1.2395832485e-02 +3.2368933284e-01 3.2418241530e-01 5.1099893000e-04 0.0000e+00 1.0000e+00
<vert_displacement>
351.61399897798384
</vert_displacement>
</event>
<event>
 4   1200 +8.5212000e+10 9.62967600e-03 7.81665300e-03            nan
       50 -1    0    0    0    0 -5.3393386680e-03 +4.7163755984e-03 +5.2321027418e+00 5.2321099748e+00 4.9935713700e-03 0.0000e+00 0.0000e+00
       11 -1    0    0    0    0 +1.8410873648e-19 -1.6262799687e-19 -1.8041107426e-16 5.1100000000e-04 5.1099893000e-04 0.0000e+00 1.0000e+00
       50  1    1    2    0    0 +2.9627140058e-03 +4.7255598106e-03 +5.1649017940e+00 5.1649072195e+00 4.9935713700e-03 0.0000e+00 0.0000e+00
       11  1    1    2    0    0 -8.3020526738e-03 -9.1842122854e-06 +6.7200947722e-02 6.7713755305e-02 5.1099893000e-04 0.0000e+00 1.0000e+00
<vert_displacement>
42.548531993030309
</vert_displacement>
</event>
<event>
 4   1200 +8.5212000e+10 1.77126100e-02 7.81665300e-03            nan
       50 -1    0    0    0    0 +5.1079019008e-02 +1.4802346647e-02 +1.5322647691e+01 1.5322740792e+01 4.9935713700e-03 0.0000e+00 0.0000e+00
       11 -1    0    0    0    0 +2.3593726187e-18 +6.8372987678e-19 +7.0776291540e-16 5.1100000000e-04 5.1099893000e-04 0.0000e+00 1.0000e+00
       50  1    1    2    0    0 +4.6019373703e-02 -1.9681214127e-03 +1.5034663357e+01 1.5034734745e+01 4.9935713700e-03 0.0000e+00 0.0000e+00
       11  1    1    2    0    0 +5.0596453056e-03 +1.6770468060e-02 +2.8798433393e-01 2.8851704684e-01 5.1099893000e-04 0.0000e+00 1.0000e+00
<vert_displacement>
427.18822754728387
</vert_displacement>
</event>
<event>
 4   1200 +8.5212000e+10 4.93315300e-02 7.81665300e-03            nan
       50 -1    0    0    0    0 +9.3754453153e-03 -1.0412244067e-01 +4.2613926476e+01 4.2614055006e+01 4.9935713700e-03 0.0000e+00 0.0000e+00
       11 -1    0    0    0    0 +1.1724396930e-18 -1.3020958287e-17 +5.3290544816e-15 5.1100000001e-04 5.1099893000e-04 0.0000e+00 1.0000e+00
       50  1    1    2    0    0 -2.2758724656e-02 -6.0438731544e-02 +4.0109963748e+01 4.0110016050e+01 4.9935713700e-03 0.0000e+00 0.0000e+00
       11  1    1    2    0    0 +3.2134169971e-02 -4.3683709123e-02 +2.5039627284e+00 2.5045499552e+00 5.1099893000e-04 0.0000e+00 1.0000e+00
<vert_displacement>
442.53628506503793
</vert_displacement>
</event>
<event>
 4   1200 +8.5212000e+10 1.27542100e-02 7.81665300e-03            nan
       50 -1    0    0    0    0 +2.5729784344e-03 -5.3943464781e-04 +2.9166756571e+00 2.9166811165e+00 4.9935713700e-03 0.0000e+00 0.0000e+00
       11 -1    0    0    0    0 -3.0606106438e-21 +6.4166858246e-22 -3.4694455426e-18 5.1100000000e-04 5.1099893000e-04 0.0000e+00 1.0000e+00
       50  1    1    2    0    0 +1.2603157805e-02 -6.3958646568e-03 +2.7749279499e+00 2.7749684340e+00 4.9935713700e-03 0.0000e+00 0.0000e+00
       11  1    1    2    0    0 -1.0030179370e-02 +5.8564300090e-03 +1.4174770717e-01 1.4222368255e-01 5.1099893000e-04 0.0000e+00 1.0000e+00
<vert_displacement>
441.68579638592928
</vert_displacement>
</event>
<event>
 4   1200 +8.5212000e+10 1.37131800e-02 7.81665300e-03            nan
       50 -1    0    0    0    0 +7.4817384591e-02 +4.0837371561e-02 +2.4601475162e+01 2.4601623329e+01 4.9935713700e-03 0.0000e+00 0.0000e+00
       11 -1    0    0    0    0 +1.4349538255e-18 +7.8323698247e-19 +4.7184195343e-16 5.1100000000e-04 5.1099893000e-04 0.0000e+00 1.0000e+00
       50  1    1    2    0    0 +7.1021222389e-02 +5.2906628762e-02 +2.4440807900e+01 2.4440968861e+01 4.9935713700e-03 0.0000e+00 0.0000e+00
       11  1    1    2    0    0 +3.7961622030e-03 -1.2069257201e-02 +1.6066726247e-01 1.6116546828e-01 5.1099893000e-04 0.0000e+00 1.0000e+00
<vert_displacement>
88.621134992617542
</vert_displacement>
</event>
<event>
 4   1200 +8.5212000e+10 2.55720800e-02 7.81665300e-03            nan
       50 -1    0    0    0    0 +6.5225279568e-02 +7.2054706195e-02 +4.2711879806e+01 4.2711990678e+01 4.9935713700e-03 0.0000e+00 0.0000e+00
       11 -1    0    0    0    0 -2.6490880586e-18 -2.9264613815e-18 -1.7347189848e-15 5.1100000000e-04 5.1099893000e-04 0.0000e+00 1.0000e+00
       50  1    1    2    0    0 +4.0111324913e-02 +6.4271862899e-02 +4.2087327732e+01 4.2087396217e+01 4.9935713700e-03 0.0000e+00 0.0000e+00
       11  1    1    2    0    0 +2.5113954654e-02 +7.7828432961e-03 +6.2455207411e-01 6.2510546131e-01 5.1099893000e-04 0.0000e+00 1.0000e+00
<vert_displacement>
130.55260006602464
</vert_displacement>
</event>
<event>
 4   1200 +8.5212000e+10 6.09584800e-03 7.81665300e-03            nan
       50 -1    0    0    0    0 +8.5662499668e-02 +1.6287955679e-02 +2.9506847899e+01 2.9506977162e+01 4.9935713700e-03 0.0000e+00 0.0000e+00
       11 -1    0    0    0    0 +4.1094759523e-18 +7.8137997880e-19 +1.4155281756e-15 5.1100000000e-04 5.1099893000e-04 0.0000e+00 1.0000e+00
       50  1    1    2    0    0 +8.8135380554e-02 +1.8717613956e-02 +2.9494873791e+01 2.9495011834e+01 4.9935713700e-03 0.0000e+00 0.0000e+00
       11  1    1    2    0    0 -2.4728808862e-03 -2.4296582771e-03 +1.1974107602e-02 1.2476327664e-02 5.1099893000e-04 0.0000e+00 1.0000e+00
<vert_displacement>
34.542648075738938
</vert_displacement>
</event>
<event>
 4   1200 +8.5212000e+10 1.45143900e-02 7.81665300e-03            nan
       50 -1    0    0    0    0 +1.9353062574e-02 -1.4644935965e-02 +9.4457408269e+00 9.4457733257e+00 4.9935713700e-03 0.0000e+00 0.0000e+00
       11 -1    0    0    0    0 +4.9758872796e-19 -3.7653756506e-19 +2.4286048499e-16 5.1100000000e-04 5.1099893000e-04 0.0000e+00 1.0000e+00
       50  1    1    2    0    0 +9.0278393428e-03 -2.3675285433e-02 +9.2603559199e+00 9.2603919312e+00 4.9935713700e-03 0.0000e+00 0.0000e+00
       11  1    1    2    0    0 +1.0325223231e-02 +9.0303494679e-03 +1.8538490701e-01 1.8589239445e-01 5.1099893000e-04 0.0000e+00 1.0000e+00
<vert_displacement>
453.86303271721528
</vert_displacement>
</event>
<event>
 4   1200 +8.5212000e+10 1.51548700e-02 7.81665300e-03            nan
       50 -1    0    0    0    0 -3.2567097949e-02 -1.9362755916e-02 +2.1009053868e+01 2.1009088626e+01 4.9935713700e-03 0.0000e+00 0.0000e+00
       11 -1    0    0    0    0 +1.9576429947e-18 +1.1639159110e-18 -1.2628766368e-15 5.1100000000e-04 5.1099893000e-04 0.0000e+00 1.0000e+00
       50  1    1    2    0    0 -4.6438433533e-02 -2.1053084606e-02 +2.0806748716e+01 2.0806811789e+01 4.9935713700e-03 0.0000e+00 0.0000e+00
       11  1    1    2    0    0 +1.3871335584e-02 +1.6903286905e-03 +2.0230515179e-01 2.0278783673e-01 5.1099893000e-04 0.0000e+00 1.0000e+00
<vert_displacement>
33.080620469548279
</vert_displacement>
</event>
<event>
 4   1200 +8.5212000e+10 7.44796200e-03 7.81665300e-03            nan
       50 -1    0    0    0    0 -8.6555204118e-02 +5.5836913418e-02 +2.7035239755e+01 2.7035436433e+01 4.9935713700e-03 0.0000e+00 0.0000e+00
       11 -1    0    0    0    0 +1.0263418316e-17 -6.6209490893e-18 -3.2057457169e-15 5.1100000000e-04 5.1099893000e-04 0.0000e+00 1.0000e+00
       50  1    1    2    0    0 -8.7071534114e-02 +5.0283172853e-02 +2.7005336617e+01 2.7005524260e+01 4.9935713700e-03 0.0000e+00 0.0000e+00
       11  1    1    2    0    0 +5.1632999575e-04 +5.5537405653e-03 +2.9903138200e-02 3.0423172501e-02 5.1099893000e-04 0.0000e+00 1.0000e+00
<vert_displacement>
3.5437223185536531
</vert_displacement>
</event>
<event>
 4   1200 +8.5212000e+10 2.55024900e-02 7.81665300e-03            nan
       50 -1    0    0    0    0 +4.9557135979e-03 +4.5193768556e-03 +2.4897883447e+00 2.4898023859e+00 4.9935713700e-03 0.0000e+00 0.0000e+00
       11 -1    0    0    0    0 -6.9056163312e-20 -6.2975960987e-20 -3.4694343639e-17 5.1100000000e-04 5.1099893000e-04 0.0000e+00 1.0000e+00
       50  1    1    2    0    0 -2.2426722550e-02 -1.6846769088e-03 +1.1531188468e+00 1.1533489527e+00 4.9935713700e-03 0.0000e+00 0.0000e+00
       11  1    1    2    0    0 +2.7382436148e-02 +6.2040537644e-03 +1.3366694979e+00 1.3369644332e+00 5.1099893000e-04 0.0000e+00 1.0000e+00
<vert_displacement>
171.30218014426006
</vert_displacement>
</event>
<event>
 4   1200 +8.5212000e+10 1.37785900e-02 7.81665300e-03            nan
       50 -1    0    0    0    0 -3.1419231947e-02 +1.8419612893e-02 +1.4541742200e+01 1.4541788666e+01 4.9935713700e-03 0.0000e+00 0.0000e+00
       11 -1    0    0    0    0 -1.0944372558e-18 +6.4161691223e-19 +5.0653766630e-16 5.1100000000e-04 5.1099893000e-04 0.0000e+00 1.0000e+00
       50  1    1    2    0    0 -2.3831347250e-02 +7.6032707994e-03 +1.4378567569e+01 1.4378590195e+01 4.9935713700e-03 0.0000e+00 0.0000e+00
       11  1    1    2    0    0 -7.5878846966e-03 +1.0816342093e-02 +1.6317463105e-01 1.6370947006e-01 5.1099893000e-04 0.0000e+00 1.0000e+00
<vert_displacement>
334.48482158142031
</vert_displacement>
</event>
<event>
 4   1200 +8.5212000e+10 9.61768100e-03 7.81665300e-03            nan
       50 -1    0    0    0    0 -4.5119165549e-03 -2.7579969977e-03 +2.0082048159e+00 2.0082179868e+00 4.9935713700e-03 0.0000e+00 0.0000e+00
       11 -1    0    0    0    0 -3.1179689927e-20 -1.9059193618e-20 +1.3877739694e-17 5.1100000000e-04 5.1099893000e-04 0.0000e+00 1.0000e+00
       50  1    1    2    0    0 -1.9958635374e-03 +5.2090513636e-03 +1.9397305617e+00 1.9397450104e+00 4.9935713700e-03 0.0000e+00 0.0000e+00
       11  1    1    2    0    0 -2.5160530175e-03 -7.9670483612e-03 +6.8474254239e-02 6.8983976371e-02 5.1099893000e-04 0.0000e+00 1.0000e+00
<vert_displacement>
378.21379299298360
</vert_displacement>
</event>
<event>
 4   1200 +8.5212000e+10 1.16266000e-02 7.81665300e-03            nan
       50 -1    0    0    0    0 -2.0139200171e-03 +2.6752834029e-04 +1.9885983673e+00 1.9886056747e+00 4.9935713700e-03 0.0000e+00 0.0000e+00
       11 -1    0    0    0    0 -2.0730375870e-19 +2.7538149495e-20 +2.0469726334e-16 5.1100000000e-04 5.1099893000e-04 0.0000e+00 1.0000e+00
       50  1    1    2    0    0 +1.1388836880e-03 +1.0302995431e-02 +1.8740211001e+00 1.8740564208e+00 4.9935713700e-03 0.0000e+00 0.0000e+00
       11  1    1    2    0    0 -3.1528037051e-03 -1.0035467091e-02 +1.1457726713e-01 1.1506025393e-01 5.1099893000e-04 0.0000e+00 1.0000e+00
<vert_displacement>
206.73853517065180
</vert_displacement>
</event>
<event>
 4   1200 +8.5212000e+10 1.87297200e-02 7.81665300e-03            nan
       50 -1    0    0    0    0 +6.8996758976e-03 -2.7433487072e-02 +5.3200399472e+01 5.3200407227e+01 4.9935713700e-03 0.0000e+00 0.0000e+00
       11 -1    0    0    0    0 -9.3591697133e-20 +3.7212568409e-19 -7.2164486399e-16 5.1100000000e-04 5.1099893000e-04 0.0000e+00 1.0000e+00
       50  1    1    2    0    0 +1.8904882893e-02 -4.0712055609e-02 +5.2879600964e+01 5.2879620252e+01 4.9935713700e-03 0.0000e+00 0.0000e+00
       11  1    1    2    0    0 -1.2005206995e-02 +1.3278568536e-02 +3.2079850735e-01 3.2129797512e-01 5.1099893000e-04 0.0000e+00 1.0000e+00
<vert_displacement>
195.52987597810926
</vert_displacement>
</event>
<event>
 4   1200 +8.5212000e+10 2.75160000e-02 7.81665300e-03            nan
       50 -1    0    0    0    0 -1.0634194351e-02 +3.1408223047e-02 +1.3131639064e+01 1.3131681880e+01 4.9935713700e-03 0.0000e+00 0.0000e+00
       11 -1    0    0    0    0 -4.9448963266e-19 +1.4604811764e-18 +6.1062071674e-16 5.1100000000e-04 5.1099893000e-04 0.0000e+00 1.0000e+00
       50  1    1    2    0    0 -1.3200635974e-02 +2.7177997432e-03 +1.2371106790e+01 1.2371115139e+01 4.9935713700e-03 0.0000e+00 0.0000e+00
       11  1    1    2    0    0 +2.5664416226e-03 +2.8690423303e-02 +7.6053227347e-01 7.6107774053e-01 5.1099893000e-04 0.0000e+00 1.0000e+00
<vert_displacement>
8.6282636387913865
</vert_displacement>
</event>
<event>
 4   1200 +8.5212000e+10 3.22529400e-02 7.81665300e-03            nan
       50 -1    0    0    0    0 -3.2540734176e-04 +4.2788264272e-03 +1.4369717825e+01 1.4369719334e+01 4.9935713700e-03 0.0000e+00 0.0000e+00
       11 -1    0    0    0    0 -1.6970439521e-20 +2.2314667122e-19 +7.4940050821e-16 5.1100000000e-04 5.1099893000e-04 0.0000e+00 -1.0000e+00
       50  1    1    2    0    0 -1.2058982289e-02 +3.3574392808e-02 +1.3295824569e+01 1.3295873366e+01 4.9935713700e-03 0.0000e+00 0.0000e+00
       11  1    1    2    0    0 +1.1733574948e-02 -2.9295566381e-02 +1.0738932561e+00 1.0743569675e+00 5.1099893000e-04 0.0000e+00 -1.0000e+00
<vert_displacement>
476.94643478354783
</vert_displacement>
</event>
<event>
 4   1200 +8.5212000e+10 3.91562600e-02 7.81665300e-03            nan
       50 -1    0    0    0    0 -5.0888475206e-03 +1.6402873123e-02 +1.2457746710e+01 1.2457759548e+01 4.9935713700e-03 0.0000e+00 0.0000e+00
       11 -1    0    0    0    0 -4.2516845511e-19 +1.3704447219e-18 +1.0408330965e-15 5.1100000000e-04 5.1099893000e-04 0.0000e+00 1.0000e+00
       50  1    1    2    0    0 -3.2781594271e-02 +4.0648085488e-02 +1.0746258888e+01 1.0746386924e+01 4.9935713700e-03 0.0000e+00 0.0000e+00
       11  1    1    2    0    0 +2.7692746750e-02 -2.4245212365e-02 +1.7114878212e+00 1.7118836239e+00 5.1099893000e-04 0.0000e+00 1.0000e+00
<vert_displacement>
29.389766964303224
</vert_displacement>
</event>
<event>
 4   1200 +8.5212000e+10 3.00965400e-02 7.81665300e-03            nan
       50 -1    0    0    0    0 +4.7202736258e-03 +2.6552141232e-03 +1.5704183120e+01 1.5704184847e+01 4.9935713700e-03 0.0000e+00 0.0000e+00
       11 -1    0    0    0    0 -4.5884365024e-20 -2.5810540597e-20 -1.5265565681e-16 5.1100000000e-04 5.1099893000e-04 0.0000e+00 1.0000e+00
       50  1    1    2    0    0 +2.3116566304e-03 +3.2103051861e-02 +1.4788809279e+01 1.4788845147e+01 4.9935713700e-03 0.0000e+00 0.0000e+00
       11  1    1    2    0    0 +2.4086169954e-03 -2.9447837738e-02 +9.1537384044e-01 9.1585070042e-01 5.1099893000e-04 0.0000e+00 1.0000e+00
<vert_displacement>
166.44925868880247
</vert_displacement>
</event>
<event>
 4   1200 +8.5212000e+10 2.45035500e-02 7.81665300e-03            nan
       50 -1    0    0    0    0 -2.7737748086e-02 -1.3236061132e-02 +9.7964420078e+00 9.7964914906e+00 4.9935713700e-03 0.0000e+00 0.0000e+00
       11 -1    0    0    0    0 +1.1002185540e-18 +5.2500873518e-19 -3.8857614637e-16 5.1100000000e-04 5.1099893000e-04 0.0000e+00 1.0000e+00
       50  1    1    2    0    0 -3.3569996959e-02 +1.0351130638e-02 +9.1964908486e+00 9.1965592998e+00 4.9935713700e-03 0.0000e+00 0.0000e+00
       11  1    1    2    0    0 +5.8322488724e-03 -2.3587191770e-02 +5.9995115928e-01 6.0044319081e-01 5.1099893000e-04 0.0000e+00 1.0000e+00
<vert_displacement>
219.39859475278416
</vert_displacement>
</event>
<event>
 4   1200 +8.5212000e+10 5.20881200e-03 7.81665300e-03            nan
       50 -1    0    0    0    0 -4.5560260020e-02 -2.8325465563e-02 +1.4473695656e+01 1.4473795941e+01 4.9935713700e-03 0.0000e+00 0.0000e+00
       11 -1    0    0    0    0 +4.1499954687e-19 +2.5801115640e-19 -1.3183807854e-16 5.1100000000e-04 5.1099893000e-04 0.0000e+00 1.0000e+00
       50  1    1    2    0    0 -4.5837469621e-02 -2.9775669882e-02 +1.4471542843e+01 1.4471646930e+01 4.9935713700e-03 0.0000e+00 0.0000e+00
       11  1    1    2    0    0 +2.7720960192e-04 +1.4502043190e-03 +2.1528130338e-03 2.6600115780e-03 5.1099893000e-04 0.0000e+00 1.0000e+00
<vert_displacement>
19.242884527168613
</vert_displacement>
</event>
<event>
 4   1200 +8.5212000e+10 1.64302500e-02 7.81665300e-03            nan
       50 -1    0    0    0    0 +4.5967942884e-02 -2.3890274088e-02 +2.2687591793e+01 2.2687651489e+01 4.9935713700e-03 0.0000e+00 0.0000e+00
       11 -1    0    0    0    0 +6.9732857328e-18 -3.6241279684e-18 +3.4416824038e-15 5.1100000000e-04 5.1099893000e-04 0.0000e+00 1.0000e+00
       50  1    1    2    0    0 +5.4667430705e-02 -3.6305960089e-02 +2.2445220830e+01 2.2445317322e+01 4.9935713700e-03 0.0000e+00 0.0000e+00
       11  1    1    2    0    0 -8.6994878209e-03 +1.2415686001e-02 +2.4237096360e-01 2.4284516767e-01 5.1099893000e-04 0.0000e+00 1.0000e+00
<vert_displacement>
14.741258941969976
</vert_displacement>
</event>
<event>
 4   1200 +8.5212000e+10 4.34258000e-02 7.81665300e-03            nan
       50 -1    0    0    0    0 -2.8203781712e-02 -2.4309649005e-02 +1.7487793706e+01 1.7487834058e+01 4.9935713700e-03 0.0000e+00 0.0000e+00
       11 -1    0    0    0    0 +3.1334272597e-19 +2.7007908954e-19 -1.9428858892e-16 5.1100000000e-04 5.1099893000e-04 0.0000e+00 1.0000e+00
       50  1    1    2    0    0 -6.8000867210e-02 -2.0502785431e-02 +1.5422682679e+01 1.5422847028e+01 4.9935713700e-03 0.0000e+00 0.0000e+00
       11  1    1    2    0    0 +3.9797085498e-02 -3.8068635733e-03 +2.0651110265e+00 2.0654980303e+00 5.1099893000e-04 0.0000e+00 1.0000e+00
<vert_displacement>
113.59309821075485
</vert_displacement>
</event>
<event>
 4   1200 +8.5212000e+10 1.95002400e-02 7.81665300e-03            nan
       50 -1    0    0    0    0 +2.5323660763e-03 +1.1653894751e-03 +3.4968814460e+00 3.4968861225e+00 4.9935713700e-03 0.0000e+00 0.0000e+00
       11 -1    0    0    0    0 -2.7637475905e-20 -1.2718707552e-20 -3.8163904345e-17 5.1100000000e-04 5.1099893000e-04 0.0000e+00 1.0000e+00
       50  1    1    2    0    0 +3.1626630878e-03 +1.9862612685e-02 +3.1049101419e+00 3.1049792996e+00 4.9935713700e-03 0.0000e+00 0.0000e+00
       11  1    1    2    0    0 -6.3029701143e-04 -1.8697223209e-02 +3.9197130409e-01 3.9241782296e-01 5.1099893000e-04 0.0000e+00 1.0000e+00
<vert_displacement>
114.31726720456547
</vert_displacement>
</event>
<event>
 4   1200 +8.5212000e+10 1.31313700e-02 7.81665300e-03            nan
       50 -1    0    0    0    0 -9.2585758891e-03 -5.8433996137e-02 +2.7133015345e+01 2.7133080306e+01 4.9935713700e-03 0.0000e+00 0.0000e+00
       11 -1    0    0    0    0 -8.0503407259e-20 -5.0808416382e-19 +2.3592183189e-16 5.1100000000e-04 5.1099893000e-04 0.0000e+00 1.0000e+00
       50  1    1    2    0    0 -2.1017079085e-02 -5.5281091817e-02 +2.6987916295e+01 2.6987981559e+01 4.9935713700e-03 0.0000e+00 0.0000e+00
       11  1    1    2    0    0 +1.1758503196e-02 -3.1529043202e-03 +1.4509904927e-01 1.4560974700e-01 5.1099893000e-04 0.0000e+00 1.0000e+00
<vert_displacement>
134.61408727535155
</vert_displacement>
</event>
<event>
 4   1200 +8.5212000e+10 3.72508100e-02 7.81665300e-03            nan
       50 -1    0    0    0    0 -2.4271263447e-02 +1.3400350233e-02 +9.2627927264e+00 9.2628355643e+00 4.9935713700e-03 0.0000e+00 0.0000e+00
       11 -1    0    0    0    0 -3.4545568258e-18 +1.9072872521e-18 +1.3183839362e-15 5.1100000000e-04 5.1099893000e-04 0.0000e+00 1.0000e+00
       50  1    1    2    0    0 -3.1141564193e-02 -2.4142297832e-02 +7.6466826520e+00 7.6467858060e+00 4.9935713700e-03 0.0000e+00 0.0000e+00
       11  1    1    2    0    0 +6.8703007461e-03 +3.7542648065e-02 +1.6161100744e+00 1.6165607583e+00 5.1099893000e-04 0.0000e+00 1.0000e+00
<vert_displacement>
215.74333092574420
</vert_displacement>
</event>
<event>
 4   1200 +8.5212000e+10 1.79645300e-02 7.81665300e-03            nan
       50 -1    0    0    0    0 +9.7936260610e-03 -1.5391284762e-03 +2.6743457860e+01 2.6743460164e+01 4.9935713700e-03 0.0000e+00 0.0000e+00
       11 -1    0    0    0    0 +4.7772066115e-19 -7.5076735485e-20 +1.3045119643e-15 5.1100000000e-04 5.1099893000e-04 0.0000e+00 1.0000e+00
       50  1    1    2    0    0 +2.6868012257e-02 +7.7114633600e-05 +2.6448818940e+01 2.6448833059e+01 4.9935713700e-03 0.0000e+00 0.0000e+00
       11  1    1    2    0    0 -1.7074386196e-02 -1.6162431098e-03 +2.9463892019e-01 2.9513810550e-01 5.1099893000e-04 0.0000e+00 1.0000e+00
<vert_displacement>
30.987343086056089
</vert_displacement>
</event>
<event>
 4   1200 +8.5212000e+10 1.72500400e-02 7.81665300e-03            nan
       50 -1    0    0    0    0 +2.0253647068e-02 -1.8449546636e-02 +9.4596988154e+00 9.4597398067e+00 4.9935713700e-03 0.0000e+00 0.0000e+00
       11 -1    0    0    0    0 +3.1792752394e-18 -2.8960802270e-18 +1.4849170678e-15 5.1100000000e-04 5.1099893000e-04 0.0000e+00 1.0000e+00
       50  1    1    2    0    0 +2.7706831200e-02 -3.4927374037e-03 +9.1849351517e+00 9.1849789626e+00 4.9935713700e-03 0.0000e+00 0.0000e+00
       11  1    1    2    0    0 -7.4531841320e-03 -1.4956809232e-02 +2.7476366374e-01 2.7527184406e-01 5.1099893000e-04 0.0000e+00 1.0000e+00
<vert_displacement>
105.76003441203052
</vert_displacement>
</event>
<event>
 4   1200 +8.5212000e+10 9.88935200e-03 7.81665300e-03            nan
       50 -1    0    0    0    0 -9.4616486421e-02 +5.6206997709e-02 +3.5334139719e+01 3.5334311457e+01 4.9935713700e-03 0.0000e+00 0.0000e+00
       11 -1    0    0    0    0 +6.3917367191e-18 -3.7970161936e-18 -2.3869679252e-15 5.1100000000e-04 5.1099893000e-04 0.0000e+00 -1.0000e+00
       50  1    1    2    0    0 -8.6071092324e-02 +5.4340641699e-02 +3.5262724618e+01 3.5262871885e+01 4.9935713700e-03 0.0000e+00 0.0000e+00
       11  1    1    2    0    0 -8.5453940967e-03 +1.8663560101e-03 +7.1415100752e-02 7.1950571786e-02 5.1099893000e-04 0.0000e+00 -1.0000e+00
<vert_displacement>
360.06342175531108
</vert_displacement>
</event>
<event>
 4   1200 +8.5212000e+10 5.48139600e-03 7.81665300e-03            nan
       50 -1    0    0    0    0 +4.5331387525e-03 +5.6840583629e-03 +2.3953161106e+00 2.3953323493e+00 4.9935713700e-03 0.0000e+00 0.0000e+00
       11 -1    0    0    0    0 +1.9041117181e-19 +2.3875470676e-19 +1.0061349815e-16 5.1100000000e-04 5.1099893000e-04 0.0000e+00 1.0000e+00
       50  1    1    2    0    0 +3.8455668566e-03 +7.8285826263e-03 +2.3903006808e+00 2.3903218100e+00 4.9935713700e-03 0.0000e+00 0.0000e+00
       11  1    1    2    0    0 +6.8757189594e-04 -2.1445242634e-03 +5.0154298897e-03 5.5215393065e-03 5.1099893000e-04 0.0000e+00 1.0000e+00
<vert_displacement>
124.20736842323458
</vert_displacement>
</event>
<event>
 4   1200 +8.5212000e+10 6.78459600e-03 7.81665300e-03            nan
       50 -1    0    0    0    0 +1.0605032846e-02 +4.0475982278e-02 +1.8808606660e+01 1.8808653865e+01 4.9935713700e-03 0.0000e+00 0.0000e+00
       11 -1    0    0    0    0 +1.3302200307e-19 +5.0770198614e-19 +2.3592180895e-16 5.1100000000e-04 5.1099893000e-04 0.0000e+00 1.0000e+00
       50  1    1    2    0    0 +1.3583959159e-02 +4.3917391004e-02 +1.8787933348e+01 1.8787990252e+01 4.9935713700e-03 0.0000e+00 0.0000e+00
       11  1    1    2    0    0 -2.9789263131e-03 -3.4414087263e-03 +2.0673311931e-02 2.1174613152e-02 5.1099893000e-04 0.0000e+00 1.0000e+00
<vert_displacement>
305.69360797745929
</vert_displacement>
</event>
<event>
 4   1200 +8.5212000e+10 1.46293300e-02 7.81665300e-03            nan
       50 -1    0    0    0    0 -1.0700606137e-02 +2.6040196545e-02 +1.0077200289e+01 1.0077240852e+01 4.9935713700e-03 0.0000e+00 0.0000e+00
       11 -1    0    0    0    0 -1.2525814113e-18 +3.0481886464e-18 +1.1796073603e-15 5.1100000000e-04 5.1099893000e-04 0.0000e+00 1.0000e+00
       50  1    1    2    0    0 -1.2222291724e-03 +1.5404260286e-02 +9.8886799133e+00 9.8886932478e+00 4.9935713700e-03 0.0000e+00 0.0000e+00
       11  1    1    2    0    0 -9.4783769651e-03 +1.0635936258e-02 +1.8852037522e-01 1.8905860404e-01 5.1099893000e-04 0.0000e+00 1.0000e+00
<vert_displacement>
476.84119462825004
</vert_displacement>
</event>
<event>
 4   1200 +8.5212000e+10 1.06559200e-02 7.81665300e-03            nan
       50 -1    0    0    0    0 +2.1381916281e-02 -6.2792934308e-03 +1.5694358150e+01 1.5694374766e+01 4.9935713700e-03 0.0000e+00 0.0000e+00
       11 -1    0    0    0    0 -1.4180258047e-18 +4.1643602019e-19 -1.0408330363e-15 5.1100000000e-04 5.1099893000e-04 0.0000e+00 1.0000e+00
       50  1    1    2    0    0 +2.3226165575e-02 +2.9620799483e-03 +1.5607165831e+01 1.5607184194e+01 4.9935713700e-03 0.0000e+00 0.0000e+00
       11  1    1    2    0    0 -1.8442492947e-03 -9.2413733792e-03 +8.7192318904e-02 8.7701572581e-02 5.1099893000e-04 0.0000e+00 1.0000e+00
<vert_displacement>
324.26407839682696
</vert_displacement>
</event>
<event>
 4   1200 +8.5212000e+10 1.50818900e-02 7.81665300e-03            nan
       50 -1    0    0    0    0 +1.1590731493e-03 -3.0607091324e-02 +1.5944112964e+01 1.5944143166e+01 4.9935713700e-03 0.0000e+00 0.0000e+00
       11 -1    0    0    0    0 -6.2549178977e-20 +1.6517063089e-18 -8.6042125646e-16 5.1100000000e-04 5.1099893000e-04 0.0000e+00 1.0000e+00
       50  1    1    2    0    0 +1.4364848598e-02 -2.4954042640e-02 +1.5743418000e+01 1.5743445122e+01 4.9935713700e-03 0.0000e+00 0.0000e+00
       11  1    1    2    0    0 -1.3205775449e-02 -5.6530486839e-03 +2.0069496410e-01 2.0120904353e-01 5.1099893000e-04 0.0000e+00 1.0000e+00
<vert_displacement>
3.4890590818796778
</vert_displacement>
</event>
<event>
 4   1200 +8.5212000e+10 1.56517300e-02 7.81665300e-03            nan
       50 -1    0    0    0    0 +1.5996685653e-02 +2.5306673953e-02 +1.6049781379e+01 1.6049810079e+01 4.9935713700e-03 0.0000e+00 0.0000e+00
       11 -1    0    0    0    0 -2.0747780078e-19 -3.2822880754e-19 -2.0816645495e-16 5.1100000000e-04 5.1099893000e-04 0.0000e+00 1.0000e+00
       50  1    1    2    0    0 +2.7262676832e-02 +3.4352289261e-02 +1.5831471142e+01 1.5831532673e+01 4.9935713700e-03 0.0000e+00 0.0000e+00
       11  1    1    2    0    0 -1.1265991179e-02 -9.0456153080e-03 +2.1831023743e-01 2.1878840600e-01 5.1099893000e-04 0.0000e+00 1.0000e+00
<vert_displacement>
18.137317040820015
</vert_displacement>
</event>
<event>
 4   1200 +8.5212000e+10 5.25164200e-02 7.81665300e-03            nan
       50 -1    0    0    0    0 +1.6872842270e-02 +1.0725135368e-02 +1.3078600029e+01 1.3078616263e+01 4.9935713700e-03 0.0000e+00 0.0000e+00
       11 -1    0    0    0    0 +2.2558866224e-18 +1.4339427236e-18 +1.7485992207e-15 5.1100000000e-04 5.1099893000e-04 0.0000e+00 1.0000e+00
       50  1    1    2    0    0 +6.3029526772e-02 -3.8471490267e-03 +9.3249625825e+00 9.3251777260e+00 4.9935713700e-03 0.0000e+00 0.0000e+00
       11  1    1    2    0    0 -4.6156684502e-02 +1.4572284394e-02 +3.7536374460e+00 3.7539495373e+00 5.1099893000e-04 0.0000e+00 1.0000e+00
<vert_displacement>
430.26515451164482
</vert_displacement>
</event>
<event>
 4   1200 +8.5212000e+10 1.38344900e-02 7.81665300e-03            nan
       50 -1    0    0    0    0 -9.2595719831e-03 +2.0706564706e-02 +1.3363471942e+01 1.3363492125e+01 4.9935713700e-03 0.0000e+00 0.0000e+00
       11 -1    0    0    0    0 -5.2887606486e-20 +1.1826903531e-19 +7.6327722992e-17 5.1100000000e-04 5.1099893000e-04 0.0000e+00 1.0000e+00
       50  1    1    2    0    0 -1.9482562144e-02 +2.8170992579e-02 +1.3198533818e+01 1.3198579206e+01 4.9935713700e-03 0.0000e+00 0.0000e+00
       11  1    1    2    0    0 +1.0222990161e-02 -7.4644278723e-03 +1.6493812362e-01 1.6542391893e-01 5.1099893000e-04 0.0000e+00 1.0000e+00
<vert_displacement>
242.28734407129022
</vert_displacement>
</event>
<event>
 4   1200 +8.5212000e+10 1.27679000e-02 7.81665300e-03            nan
       50 -1    0    0    0    0 +3.6175399796e-02 +1.8361428995e-02 +1.9373785110e+01 1.9373828228e+01 4.9935713700e-03 0.0000e+00 0.0000e+00
       11 -1    0    0    0    0 +1.2956513628e-18 +6.5762951158e-19 +6.9388786912e-16 5.1100000000e-04 5.1099893000e-04 0.0000e+00 1.0000e+00
       50  1    1    2    0    0 +3.2289126412e-02 +2.9407912569e-02 +1.9237710163e+01 1.9237760386e+01 4.9935713700e-03 0.0000e+00 0.0000e+00
       11  1    1    2    0    0 +3.8862733839e-03 -1.1046483574e-02 +1.3607494661e-01 1.3657884220e-01 5.1099893000e-04 0.0000e+00 1.0000e+00
<vert_displacement>
109.31108270261483
</vert_displacement>
</event>
<event>
 4   1200 +8.5212000e+10 5.58738000e-03 7.81665300e-03            nan
       50 -1    0    0    0    0 +1.5859547401e-02 -1.3861993797e-02 +5.7222815750e+00 5.7223225214e+00 4.9935713700e-03 0.0000e+00 0.0000e+00
       11 -1    0    0    0    0 -8.8464026284e-19 +7.7321738925e-19 -3.1918695713e-16 5.1100000000e-04 5.1099893000e-04 0.0000e+00 1.0000e+00
       50  1    1    2    0    0 +1.3779976055e-02 -1.5271547944e-02 +5.7161288736e+00 5.7161680647e+00 4.9935713700e-03 0.0000e+00 0.0000e+00
       11  1    1    2    0    0 +2.0795713461e-03 +1.4095541471e-03 +6.1527013376e-03 6.6654567385e-03 5.1099893000e-04 0.0000e+00 1.0000e+00
<vert_displacement>
305.55944029294739
</vert_displacement>
</event>
<event>
 4   1200 +8.5212000e+10 3.12817000e-02 7.81665300e-03            nan
       50 -1    0    0    0    0 -7.8385436675e-03 +2.5977879955e-03 +5.5115436325e+00 5.5115520808e+00 4.9935713700e-03 0.0000e+00 0.0000e+00
       11 -1    0    0    0    0 +7.8948135692e-20 -2.6164365202e-20 -5.5511088925e-17 5.1100000000e-04 5.1099893000e-04 0.0000e+00 1.0000e+00
       50  1    1    2    0    0 +2.3913315536e-02 -5.0508902103e-03 +4.3194236018e+00 4.3194956356e+00 4.9935713700e-03 0.0000e+00 0.0000e+00
       11  1    1    2    0    0 -3.1751859204e-02 +7.6486782058e-03 +1.1921200307e+00 1.1925674453e+00 5.1099893000e-04 0.0000e+00 1.0000e+00
<vert_displacement>
268.14633902556642
</vert_displacement>
</event>
<event>
 4   1200 +8.5212000e+10 1.97747200e-02 7.81665300e-03            nan
       50 -1    0    0    0    0 -6.7057617208e-02 +8.9165110542e-02 +3.5669127268e+01 3.5669302097e+01 4.9935713700e-03 0.0000e+00 0.0000e+00
       11 -1    0    0    0    0 -1.7219387046e-18 +2.2896258671e-18 +9.1592951493e-16 5.1100000000e-04 5.1099893000e-04 0.0000e+00 1.0000e+00
       50  1    1    2    0    0 -4.7265767532e-02 +8.7336466614e-02 +3.5307264835e+01 3.5307404844e+01 4.9935713700e-03 0.0000e+00 0.0000e+00
       11  1    1    2    0    0 -1.9791849676e-02 +1.8286439274e-03 +3.6186243207e-01 3.6240825338e-01 5.1099893000e-04 0.0000e+00 1.0000e+00
<vert_displacement>
84.004820529699671
</vert_displacement>
</event>
<event>
 4   1200 +8.5212000e+10 1.64976000e-02 7.81665300e-03            nan
       50 -1    0    0    0    0 -6.9099258306e-03 +8.5278474113e-03 +2.8973674257e+01 2.8973676766e+01 4.9935713700e-03 0.0000e+00 0.0000e+00
       11 -1    0    0    0    0 -6.0898675520e-19 +7.5157769434e-19 +2.5535127734e-15 5.1100000000e-04 5.1099893000e-04 0.0000e+00 1.0000e+00
       50  1    1    2    0    0 -9.7086303974e-03 -7.0059535488e-03 +2.8729704834e+01 2.8729707762e+01 4.9935713700e-03 0.0000e+00 0.0000e+00
       11  1    1    2    0    0 +2.7987045668e-03 +1.5533800960e-02 +2.4396942314e-01 2.4448000382e-01 5.1099893000e-04 0.0000e+00 1.0000e+00
<vert_displacement>
497.09082236374627
</vert_displacement>
</event>
<event>
 4   1200 +8.5212000e+10 2.55775400e-02 7.81665300e-03            nan
       50 -1    0    0    0    0 -5.2668568466e-02 +2.7255938218e-02 +1.5397742874e+01 1.5397857884e+01 4.9935713700e-03 0.0000e+00 0.0000e+00
       11 -1    0    0    0    0 -1.7088894706e-18 +8.8434880969e-19 +4.9959665573e-16 5.1100000000e-04 5.1099893000e-04 0.0000e+00 1.0000e+00
       50  1    1    2    0    0 -7.1783816523e-02 +3.9347524320e-02 +1.4755041732e+01 1.4755269655e+01 4.9935713700e-03 0.0000e+00 0.0000e+00
       11  1    1    2    0    0 +1.9115248056e-02 -1.2091586102e-02 +6.4270114168e-01 6.4309922858e-01 5.1099893000e-04 0.0000e+00 1.0000e+00
<vert_displacement>
212.30244141107411
</vert_displacement>
</event>
<event>
 4   1200 +8.5212000e+10 7.82347400e-03 7.81665300e-03            nan
       50 -1    0    0    0    0 +7.0531683353e-02 +5.3388703803e-02 +2.2110903153e+01 2.2111080667e+01 4.9935713700e-03 0.0000e+00 0.0000e+00
       11 -1    0    0    0    0 +4.6039211109e-18 +3.4849215110e-18 +1.4432783817e-15 5.1100000000e-04 5.1099893000e-04 0.0000e+00 1.0000e+00
       50  1    1    2    0    0 +7.0298297934e-02 +5.9324198427e-02 +2.2075341040e+01 2.2075533248e+01 4.9935713700e-03 0.0000e+00 0.0000e+00
       11  1    1    2    0    0 +2.3338541973e-04 -5.9354946238e-03 +3.5562113250e-02 3.6058419044e-02 5.1099893000e-04 0.0000e+00 1.0000e+00
<vert_displacement>
90.570042151793189
</vert_displacement>
</event>
<event>
 4   1200 +8.5212000e+10 1.16574700e-02 7.81665300e-03            nan
       50 -1    0    0    0    0 +5.4552664762e-02 +4.3206664479e-03 +2.0102932825e+01 2.0103007928e+01 4.9935713700e-03 0.0000e+00 0.0000e+00
       11 -1    0    0    0    0 +2.2595732897e-19 +1.7896215596e-20 +8.3266418338e-17 5.1100000000e-04 5.1099893000e-04 0.0000e+00 1.0000e+00
       50  1    1    2    0    0 +4.8048836484e-02 +1.2807582335e-02 +1.9993779671e+01 1.9993842132e+01 4.9935713700e-03 0.0000e+00 0.0000e+00
       11  1    1    2    0    0 +6.5038282776e-03 -8.4869158873e-03 +1.0915315394e-01 1.0967679635e-01 5.1099893000e-04 0.0000e+00 1.0000e+00
<vert_displacement>
0.17496459692227748
</vert_displacement>
</event>
<event>
 4   1200 +8.5212000e+10 1.44028600e-02 7.81665300e-03            nan
       50 -1    0    0    0    0 -1.7850669896e-02 +2.9270711251e-02 +1.4087491699e+01 1.4087534303e+01 4.9935713700e-03 0.0000e+00 0.0000e+00
       11 -1    0    0    0    0 -8.9682969233e-19 +1.4705802706e-18 +7.0776508223e-16 5.1100000000e-04 5.1099893000e-04 0.0000e+00 1.0000e+00
       50  1    1    2    0    0 -2.5691384359e-02 +1.8060500656e-02 +1.3906592800e+01 1.3906629156e+01 4.9935713700e-03 0.0000e+00 0.0000e+00
       11  1    1    2    0    0 +7.8407144637e-03 +1.1210210595e-02 +1.8089889935e-01 1.8141614738e-01 5.1099893000e-04 0.0000e+00 1.0000e+00
<vert_displacement>
186.92358059035018
</vert_displacement>
</event>
<event>
 4   1200 +8.5212000e+10 1.03249000e-02 7.81665300e-03            nan
       50 -1    0    0    0    0 -3.7914854361e-02 -4.7609183937e-03 +2.1046572144e+01 2.1046607426e+01 4.9935713700e-03 0.0000e+00 0.0000e+00
       11 -1    0    0    0    0 +3.2750568447e-18 +4.1124458039e-19 -1.8179872063e-15 5.1100000000e-04 5.1099893000e-04 0.0000e+00 1.0000e+00
       50  1    1    2    0    0 -3.1721949127e-02 -1.1457288007e-02 +2.0966363744e+01 2.0966391466e+01 4.9935713700e-03 0.0000e+00 0.0000e+00
       11  1    1    2    0    0 -6.1929052333e-03 +6.6963696132e-03 +8.0208400632e-02 8.0726960137e-02 5.1099893000e-04 0.0000e+00 1.0000e+00
<vert_displacement>
37.350861451390649
</vert_displacement>
</event>
<event>
 4   1200 +8.5212000e+10 8.35886700e-03 7.81665300e-03            nan
       50 -1    0    0    0    0 +1.8523115160e-02 -1.1745026432e-02 +8.7899140895e+00 8.7899428717e+00 4.9935713700e-03 0.0000e+00 0.0000e+00
       11 -1    0    0    0    0 +3.0268342322e-18 -1.9192370050e-18 +1.4363465666e-15 5.1100000000e-04 5.1099893000e-04 0.0000e+00 1.0000e+00
       50  1    1    2    0    0 +1.9131014869e-02 -5.0193869222e-03 +8.7457286764e+00 8.7457524666e+00 4.9935713700e-03 0.0000e+00 0.0000e+00
       11  1    1    2    0    0 -6.0789970820e-04 -6.7256395100e-03 +4.4185413044e-02 4.4701405064e-02 5.1099893000e-04 0.0000e+00 1.0000e+00
<vert_displacement>
272.83869683983806
</vert_displacement>
</event>
<event>
 4   1200 +8.5212000e+10 9.12169000e-03 7.81665300e-03            nan
       50 -1    0    0    0    0 -2.6339708624e-03 -1.8779070613e-02 +1.3516419733e+01 1.3516433957e+01 4.9935713700e-03 0.0000e+00 0.0000e+00
       11 -1    0    0    0    0 +2.9748275664e-20 +2.1209231177e-19 -1.5265551565e-16 5.1100000000e-04 5.1099893000e-04 0.0000e+00 1.0000e+00
       50  1    1    2    0    0 -5.9325313315e-03 -2.5578115339e-02 +1.3459149282e+01 1.3459175820e+01 4.9935713700e-03 0.0000e+00 0.0000e+00
       11  1    1    2    0    0 +3.2985604691e-03 +6.7990447255e-03 +5.7270451272e-02 5.7769137255e-02 5.1099893000e-04 0.0000e+00 1.0000e+00
<vert_displacement>
356.45159395906211
</vert_displacement>
</event>
<event>
 4   1200 +8.5212000e+10 1.41238300e-02 7.81665300e-03            nan
       50 -1    0    0    0    0 +7.9743938659e-02 -4.5945196247e-02 +2.3218742447e+01 2.3218925380e+01 4.9935713700e-03 0.0000e+00 0.0000e+00
       11 -1    0    0    0    0 +1.3345469301e-18 -7.6891136351e-19 +3.8857500614e-16 5.1100000000e-04 5.1099893000e-04 0.0000e+00 1.0000e+00
       50  1    1    2    0    0 +8.5373667823e-02 -3.3949239527e-02 +2.3046675665e+01 2.3046859338e+01 4.9935713700e-03 0.0000e+00 0.0000e+00
       11  1    1    2    0    0 -5.6297291634e-03 -1.1995956720e-02 +1.7206678226e-01 1.7257704223e-01 5.1099893000e-04 0.0000e+00 1.0000e+00
<vert_displacement>
198.35098930326876
</vert_displacement>
</event>
<event>
 4   1200 +8.5212000e+10 2.46736000e-02 7.81665300e-03            nan
       50 -1    0    0    0    0 +3.9064832100e-03 +7.5753654012e-03 +2.1712188951e+01 2.1712191199e+01 4.9935713700e-03 0.0000e+00 0.0000e+00
       11 -1    0    0    0    0 -3.9950529913e-20 -7.7471179522e-20 -2.2204458782e-16 5.1100000000e-04 5.1099893000e-04 0.0000e+00 1.0000e+00
       50  1    1    2    0    0 +1.4864192367e-02 +2.8851950988e-02 +2.1124985292e+01 2.1125010814e+01 4.9935713700e-03 0.0000e+00 0.0000e+00
       11  1    1    2    0    0 -1.0957709157e-02 -2.1276585587e-02 +5.8720365938e-01 5.8769138431e-01 5.1099893000e-04 0.0000e+00 1.0000e+00
<vert_displacement>
65.136273753755958
</vert_displacement>
</event>
<event>
 4   1200 +8.5212000e+10 2.82498500e-02 7.81665300e-03            nan
       50 -1    0    0    0    0 +5.1527062448e-02 +1.7675049490e-03 +2.2093010437e+01 2.2093071160e+01 4.9935713700e-03 0.0000e+00 0.0000e+00
       11 -1    0    0    0    0 -6.4733567561e-19 -2.2205205497e-20 -2.7755500039e-16 5.1100000000e-04 5.1099893000e-04 0.0000e+00 1.0000e+00
       50  1    1    2    0    0 +2.3483558061e-02 +1.0974783650e-02 +2.1308701831e+01 2.1308718183e+01 4.9935713700e-03 0.0000e+00 0.0000e+00
       11  1    1    2    0    0 +2.8043504387e-02 -9.2072787010e-03 +7.8430860559e-01 7.8486397678e-01 5.1099893000e-04 0.0000e+00 1.0000e+00
<vert_displacement>
408.04267769079149
</vert_displacement>
</event>
<event>
 4   1200 +8.5212000e+10 1.52950300e-02 7.81665300e-03            nan
       50 -1    0    0    0    0 +6.3555457731e-02 +7.1110655012e-02 +2.7394201532e+01 2.7394368008e+01 4.9935713700e-03 0.0000e+00 0.0000e+00
       11 -1    0    0    0    0 +2.5757386944e-19 +2.8819313437e-19 +1.1102162962e-16 5.1100000000e-04 5.1099893000e-04 0.0000e+00 1.0000e+00
       50  1    1    2    0    0 +7.0635453690e-02 +8.2899541086e-02 +2.7188095125e+01 2.7188313725e+01 4.9935713700e-03 0.0000e+00 0.0000e+00
       11  1    1    2    0    0 -7.0799959596e-03 -1.1788886074e-02 +2.0610640686e-01 2.0656528325e-01 5.1099893000e-04 0.0000e+00 1.0000e+00
<vert_displacement>
131.86131841933300
</vert_displacement>
</event>
<event>
 4   1200 +8.5212000e+10 1.32179500e-02 7.81665300e-03            nan
       50 -1    0    0    0    0 -2.9170783569e-02 +2.0617502341e-02 +2.0613124962e+01 2.0613156519e+01 4.9935713700e-03 0.0000e+00 0.0000e+00
       11 -1    0    0    0    0 -6.0881527962e-19 +4.3030213512e-19 +4.3021077606e-16 5.1100000000e-04 5.1099893000e-04 0.0000e+00 1.0000e+00
       50  1    1    2    0    0 -2.0624702615e-02 +2.9429194326e-02 +2.0465511859e+01 2.0465544020e+01 4.9935713700e-03 0.0000e+00 0.0000e+00
       11  1    1    2    0    0 -8.5460809545e-03 -8.8116919846e-03 +1.4761310348e-01 1.4812349866e-01 5.1099893000e-04 0.0000e+00 1.0000e+00
<vert_displacement>
89.725152273690568
</vert_displacement>
</event>
<event>
 4   1200 +8.5212000e+10 2.71959300e-02 7.81665300e-03            nan
       50 -1    0    0    0    0 +5.0813407179e-02 -3.3885038959e-02 +1.5801709459e+01 1.5801828279e+01 4.9935713700e-03 0.0000e+00 0.0000e+00
       11 -1    0    0    0    0 -6.6939505864e-19 +4.4638765436e-19 -2.0816526222e-16 5.1100000000e-04 5.1099893000e-04 0.0000e+00 1.0000e+00
       50  1    1    2    0    0 +7.0332934391e-02 -4.7675530226e-02 +1.5068198613e+01 1.5068439005e+01 4.9935713700e-03 0.0000e+00 0.0000e+00
       11  1    1    2    0    0 -1.9519527211e-02 +1.3790491267e-02 +7.3351084662e-01 7.3390027444e-01 5.1099893000e-04 0.0000e+00 1.0000e+00
<vert_displacement>
200.12876865078084
</vert_displacement>
</event>
<event>
 4   1200 +8.5212000e+10 3.32561500e-02 7.81665300e-03            nan
       50 -1    0    0    0    0 +6.8224712558e-03 +8.9330815229e-02 +4.0278182836e+01 4.0278282784e+01 4.9935713700e-03 0.0000e+00 0.0000e+00
       11 -1    0    0    0    0 -9.5907192311e-19 -1.2557718976e-17 -5.6621234188e-15 5.1100000000e-04 5.1099893000e-04 0.0000e+00 1.0000e+00
       50  1    1    2    0    0 -1.8182462655e-02 +1.0848269157e-01 +3.9191003625e+01 3.9191158303e+01 4.9935713700e-03 0.0000e+00 0.0000e+00
       11  1    1    2    0    0 +2.5004933911e-02 -1.9151876339e-02 +1.0871792111e+00 1.0876354808e+00 5.1099893000e-04 0.0000e+00 1.0000e+00
<vert_displacement>
126.03284303609256
</vert_displacement>
</event>
<event>
 4   1200 +8.5212000e+10 1.38007600e-02 7.81665300e-03            nan
       50 -1    0    0    0    0 -1.5210270112e-03 -3.0623091557e-05 +1.1874746877e+00 1.1874861617e+00 4.9935713700e-03 0.0000e+00 0.0000e+00
       11 -1    0    0    0    0 -8.8879674687e-20 -1.7894293760e-21 +6.9388882093e-17 5.1100000000e-04 5.1099893000e-04 0.0000e+00 1.0000e+00
       50  1    1    2    0    0 +4.6054213464e-03 -1.1470399039e-02 +9.9292437671e-01 9.9301386374e-01 4.9935713700e-03 0.0000e+00 0.0000e+00
       11  1    1    2    0    0 -6.1264483576e-03 +1.1439775948e-02 +1.9455031098e-01 1.9498329792e-01 5.1099893000e-04 0.0000e+00 1.0000e+00
<vert_displacement>
188.31343011954868
</vert_displacement>
</event>
<event>
 4   1200 +8.5212000e+10 1.39648800e-02 7.81665300e-03            nan
       50 -1    0    0    0    0 +1.0151698348e-02 +1.2945359733e-02 +9.7414035487e+00 9.7414187198e+00 4.9935713700e-03 0.0000e+00 0.0000e+00
       11 -1    0    0    0    0 +3.4709474206e-19 +4.4261227463e-19 +3.3306643244e-16 5.1100000000e-04 5.1099893000e-04 0.0000e+00 1.0000e+00
       50  1    1    2    0    0 +2.2733758805e-02 +1.0018292034e-02 +9.5720120685e+00 9.5720456103e+00 4.9935713700e-03 0.0000e+00 0.0000e+00
       11  1    1    2    0    0 -1.2582060456e-02 +2.9270676987e-03 +1.6939148024e-01 1.6988410952e-01 5.1099893000e-04 0.0000e+00 1.0000e+00
<vert_displacement>
21.525534762766888
</vert_displacement>
</event>
<event>
 4   1200 +8.5212000e+10 2.53923000e-02 7.81665300e-03            nan
       50 -1    0    0    0    0 +1.2238177261e-02 +2.3291172771e-02 +1.1539337257e+01 1.1539368332e+01 4.9935713700e-03 0.0000e+00 0.0000e+00
       11 -1    0    0    0    0 +1.0965066237e-18 +2.0868242609e-18 +1.0338925042e-15 5.1100000000e-04 5.1099893000e-04 0.0000e+00 1.0000e+00
       50  1    1    2    0    0 +3.1373751108e-02 +6.9239322749e-03 +1.0896999420e+01 1.0897047928e+01 4.9935713700e-03 0.0000e+00 0.0000e+00
       11  1    1    2    0    0 -1.9135573846e-02 +1.6367240496e-02 +6.4233783719e-01 6.4283140476e-01 5.1099893000e-04 0.0000e+00 1.0000e+00
<vert_displacement>
457.42904834056355
</vert_displacement>
</event>
<event>
 4   1200 +8.5212000e+10 2.05238700e-02 7.81665300e-03            nan
       50 -1    0    0    0    0 -2.4778076692e-02 -9.6372165339e-03 +9.3355576060e+00 9.3355967982e+00 4.9935713700e-03 0.0000e+00 0.0000e+00
       11 -1    0    0    0    0 +1.4917664465e-18 +5.8020953129e-19 -5.6204812705e-16 5.1100000000e-04 5.1099893000e-04 0.0000e+00 1.0000e+00
       50  1    1    2    0    0 -4.3471885305e-02 -1.1551402977e-02 +8.9300669340e+00 8.9301816119e+00 4.9935713700e-03 0.0000e+00 0.0000e+00
       11  1    1    2    0    0 +1.8693808613e-02 +1.9141864432e-03 +4.0549067192e-01 4.0592618630e-01 5.1099893000e-04 0.0000e+00 1.0000e+00
<vert_displacement>
288.97378801232605
</vert_displacement>
</event>
<event>
 4   1200 +8.5212000e+10 6.82592300e-03 7.81665300e-03            nan
       50 -1    0    0    0    0 +1.8444381647e-02 +2.3670311905e-02 +1.3039060271e+01 1.3039095757e+01 4.9935713700e-03 0.0000e+00 0.0000e+00
       11 -1    0    0    0    0 +2.1103056619e-18 +2.7082281310e-18 +1.4918582386e-15 5.1100000000e-04 5.1099893000e-04 0.0000e+00 1.0000e+00
       50  1    1    2    0    0 +1.7068561080e-02 +2.8086693316e-02 +1.3017827432e+01 1.3017869879e+01 4.9935713700e-03 0.0000e+00 0.0000e+00
       11  1    1    2    0    0 +1.3758205662e-03 -4.4163814108e-03 +2.1232838440e-02 2.1736877769e-02 5.1099893000e-04 0.0000e+00 1.0000e+00
<vert_displacement>
225.55458672191645
</vert_displacement>
</event>
<event>
 4   1200 +8.5212000e+10 1.21823500e-02 7.81665300e-03            nan
       50 -1    0    0    0    0 +6.0214873172e-04 -1.8213840705e-02 +1.5001947031e+01 1.5001958931e+01 4.9935713700e-03 0.0000e+00 0.0000e+00
       11 -1    0    0    0    0 -3.2586066292e-20 +9.8566581540e-19 -8.1184998776e-16 5.1100000000e-04 5.1099893000e-04 0.0000e+00 1.0000e+00
       50  1    1    2    0    0 +5.8105110346e-03 -2.7878994958e-02 +1.4880124196e+01 1.4880152285e+01 4.9935713700e-03 0.0000e+00 0.0000e+00
       11  1    1    2    0    0 -5.2083623029e-03 +9.6651542531e-03 +1.2182283574e-01 1.2231764661e-01 5.1099893000e-04 0.0000e+00 1.0000e+00
<vert_displacement>
499.78015938879554
</vert_displacement>
</event>
<event>
 4   1200 +8.5212000e+10 5.97446500e-03 7.81665300e-03            nan
       50 -1    0    0    0    0 -2.4783317560e-02 +3.7008936568e-02 +1.8129171711e+01 1.8129227113e+01 4.9935713700e-03 0.0000e+00 0.0000e+00
       11 -1    0    0    0    0 +1.3659440410e-18 -2.0397647024e-18 -9.9919770653e-16 5.1100000000e-04 5.1099893000e-04 0.0000e+00 1.0000e+00
       50  1    1    2    0    0 -2.7196142320e-02 +3.4781294007e-02 +1.8118639623e+01 1.8118694106e+01 4.9935713700e-03 0.0000e+00 0.0000e+00
       11  1    1    2    0    0 +2.4128247603e-03 +2.2276425610e-03 +1.0532087415e-02 1.1044007422e-02 5.1099893000e-04 0.0000e+00 1.0000e+00
<vert_displacement>
308.79134747276737
</vert_displacement>
</event>
<event>
 4   1200 +8.5212000e+10 9.93330200e-03 7.81665300e-03            nan
       50 -1    0    0    0    0 +5.1905232370e-02 +1.0797946322e-02 +2.8629328113e+01 2.8629377637e+01 4.9935713700e-03 0.0000e+00 0.0000e+00
       11 -1    0    0    0    0 -1.7612358701e-18 -3.6639331949e-19 -9.7144348088e-16 5.1100000000e-04 5.1099893000e-04 0.0000e+00 1.0000e+00
       50  1    1    2    0    0 +5.8219851303e-02 +1.6444003236e-02 +2.8556982737e+01 2.8557047255e+01 4.9935713700e-03 0.0000e+00 0.0000e+00
       11  1    1    2    0    0 -6.3146189333e-03 -5.6460569135e-03 +7.2345375757e-02 7.2841381675e-02 5.1099893000e-04 0.0000e+00 1.0000e+00
<vert_displacement>
189.73257887129918
</vert_displacement>
</event>
<event>
 4   1200 +8.5212000e+10 8.03086200e-03 7.81665300e-03            nan
       50 -1    0    0    0    0 +2.4477347010e-02 -3.7743074646e-03 +7.9304861806e+00 7.9305264253e+00 4.9935713700e-03 0.0000e+00 0.0000e+00
       11 -1    0    0    0    0 -1.9275034804e-18 +2.9721320579e-19 -6.2449740603e-16 5.1100000000e-04 5.1099893000e-04 0.0000e+00 1.0000e+00
       50  1    1    2    0    0 +2.0090187262e-02 +8.6488532384e-04 +7.8916004180e+00 7.8916276177e+00 4.9935713700e-03 0.0000e+00 0.0000e+00
       11  1    1    2    0    0 +4.3871597475e-03 -4.6391927885e-03 +3.8885762615e-02 3.9409807592e-02 5.1099893000e-04 0.0000e+00 1.0000e+00
<vert_displacement>
371.86955950645643
</vert_displacement>
</event>
<event>
 4   1200 +8.5212000e+10 6.93425100e-03 7.81665300e-03            nan
       50 -1    0    0    0    0 +7.2735515359e-02 -4.1789418492e-02 +2.1004870309e+01 2.1005038406e+01 4.9935713700e-03 0.0000e+00 0.0000e+00
       11 -1    0    0    0    0 +8.5538828443e-18 -4.9145426158e-18 +2.4702265309e-15 5.1100000000e-04 5.1099893000e-04 0.0000e+00 1.0000e+00
       50  1    1    2    0    0 +7.6070950867e-02 -4.5134389031e-02 +2.0982177085e+01 2.0982364120e+01 4.9935713700e-03 0.0000e+00 0.0000e+00
       11  1    1    2    0    0 -3.3354355085e-03 +3.3449705389e-03 +2.2693223391e-02 2.3185285543e-02 5.1099893000e-04 0.0000e+00 1.0000e+00
<vert_displacement>
164.82042078882833
</vert_displacement>
</event>
<event>
 4   1200 +8.5212000e+10 1.63074200e-02 7.81665300e-03            nan
       50 -1    0    0    0    0 -2.2803514823e-02 -1.9365636615e-02 +7.4196783750e+00 7.4197403696e+00 4.9935713700e-03 0.0000e+00 0.0000e+00
       11 -1    0    0    0    0 -4.0518842451e-19 -3.4410185671e-19 +1.3183791247e-16 5.1100000000e-04 5.1099893000e-04 0.0000e+00 1.0000e+00
       50  1    1    2    0    0 -2.2904948673e-02 -3.2284777421e-03 +7.1758523125e+00 7.1758913319e+00 4.9935713700e-03 0.0000e+00 0.0000e+00
       11  1    1    2    0    0 +1.0143385030e-04 -1.6137158873e-02 +2.4382606248e-01 2.4436003775e-01 5.1099893000e-04 0.0000e+00 1.0000e+00
<vert_displacement>
49.575575302462816
</vert_displacement>
</event>
<event>
 4   1200 +8.5212000e+10 1.47722900e-02 7.81665300e-03            nan
       50 -1    0    0    0    0 -4.3729023840e-03 -3.9013401727e-03 +7.6178829597e+00 7.6178868504e+00 4.9935713700e-03 0.0000e+00 0.0000e+00
       11 -1    0    0    0    0 +3.5051634754e-19 +3.1271759298e-19 -6.1062248286e-16 5.1100000000e-04 5.1099893000e-04 0.0000e+00 1.0000e+00
       50  1    1    2    0    0 -4.4928096703e-03 -1.7702705039e-02 +7.4237777061e+00 7.4238018519e+00 4.9935713700e-03 0.0000e+00 0.0000e+00
       11  1    1    2    0    0 +1.1990728623e-04 +1.3801364867e-02 +1.9410525363e-01 1.9459599856e-01 5.1099893000e-04 0.0000e+00 1.0000e+00
<vert_displacement>
482.93244227230713
</vert_displacement>
</event>
<event>
 4   1200 +8.5212000e+10 1.25360300e-02 7.81665300e-03            nan
       50 -1    0    0    0    0 -2.6162784735e-03 -2.5876141708e-02 +1.0454855029e+01 1.0454888571e+01 4.9935713700e-03 0.0000e+00 0.0000e+00
       11 -1    0    0    0    0 -3.0908281462e-19 -3.0569646128e-18 +1.2351192932e-15 5.1100000000e-04 5.1099893000e-04 0.0000e+00 -1.0000e+00
       50  1    1    2    0    0 -1.1832411682e-02 -3.2383645459e-02 +1.0323814010e+01 1.0323872789e+01 4.9935713700e-03 0.0000e+00 0.0000e+00
       11  1    1    2    0    0 +9.2161332090e-03 +6.5075037508e-03 +1.3104101899e-01 1.3152678242e-01 5.1099893000e-04 0.0000e+00 -1.0000e+00
<vert_displacement>
140.46851050890712
</vert_displacement>
</event>
<event>
 4   1200 +8.5212000e+10 6.20173500e-03 7.81665300e-03            nan
       50 -1    0    0    0    0 -1.0471657499e-02 -1.8335855315e-02 +7.2859566248e+00 7.2859889331e+00 4.9935713700e-03 0.0000e+00 0.0000e+00
       11 -1    0    0    0    0 +8.9755233374e-20 +1.5716126822e-19 -6.2449782880e-17 5.1100000000e-04 5.1099893000e-04 0.0000e+00 1.0000e+00
       50  1    1    2    0    0 -7.7982419078e-03 -2.0848097951e-02 +7.2726943439e+00 7.2727301209e+00 4.9935713700e-03 0.0000e+00 0.0000e+00
       11  1    1    2    0    0 -2.6734155913e-03 +2.5122426361e-03 +1.3262280877e-02 1.3769812197e-02 5.1099893000e-04 0.0000e+00 1.0000e+00
<vert_displacement>
28.161938288746914
</vert_displacement>
</event>
<event>
 4   1200 +8.5212000e+10 2.69261900e-02 7.81665300e-03            nan
       50 -1    0    0    0    0 -2.9271849921e-02 +2.3101083846e-02 +1.2973346492e+01 1.2973401044e+01 4.9935713700e-03 0.0000e+00 0.0000e+00
       11 -1    0    0    0    0 +1.3620901685e-18 -1.0749494574e-18 -6.0368127594e-16 5.1100000000e-04 5.1099893000e-04 0.0000e+00 1.0000e+00
       50  1    1    2    0    0 -2.0545061500e-02 +4.7300493090e-02 +1.2247608585e+01 1.2247718172e+01 4.9935713700e-03 0.0000e+00 0.0000e+00
       11  1    1    2    0    0 -8.7267884214e-03 -2.4199409244e-02 +7.2573790678e-01 7.2619387129e-01 5.1099893000e-04 0.0000e+00 1.0000e+00
<vert_displacement>
269.12684150970989
</vert_displacement>
</event>
<event>
 4   1200 +8.5212000e+10 4.04539600e-02 7.81665300e-03            nan
       50 -1    0    0    0    0 -3.5116654291e-03 +2.6154145860e-02 +1.2530274890e+01 1.2530303673e+01 4.9935713700e-03 0.0000e+00 0.0000e+00
       11 -1    0    0    0    0 -5.0755408193e-19 +3.7801560994e-18 +1.8110472927e-15 5.1100000000e-04 5.1099893000e-04 0.0000e+00 1.0000e+00
       50  1    1    2    0    0 -2.7675885516e-02 -9.3688466337e-03 +1.0679452186e+01 1.0679493324e+01 4.9935713700e-03 0.0000e+00 0.0000e+00
       11  1    1    2    0    0 +2.4164220087e-02 +3.5522992494e-02 +1.8508227044e+00 1.8513213489e+00 5.1099893000e-04 0.0000e+00 1.0000e+00
<vert_displacement>
205.36346081886705
</vert_displacement>
</event>
<event>
 4   1200 +8.5212000e+10 1.32228800e-02 7.81665300e-03            nan
       50 -1    0    0    0    0 -6.1911120463e-02 +6.9930530391e-02 +3.2731632014e+01 3.2731765649e+01 4.9935713700e-03 0.0000e+00 0.0000e+00
       11 -1    0    0    0    0 +1.2835959491e-17 -1.4498614281e-17 -6.7862106106e-15 5.1100000000e-04 5.1099893000e-04 0.0000e+00 1.0000e+00
       50  1    1    2    0    0 -4.9650600830e-02 +6.7096993597e-02 +3.2584312855e+01 3.2584420148e+01 4.9935713700e-03 0.0000e+00 0.0000e+00
       11  1    1    2    0    0 -1.2260519634e-02 +2.8335367947e-03 +1.4731915877e-01 1.4785650116e-01 5.1099893000e-04 0.0000e+00 1.0000e+00
<vert_displacement>
198.38021991798271
</vert_displacement>
</event>
<event>
 4   1200 +8.5212000e+10 5.17243100e-03 7.81665300e-03            nan
       50 -1    0    0    0    0 -8.3257238058e-03 -2.8956153580e-02 +1.5857892517e+01 1.5857921926e+01 4.9935713700e-03 0.0000e+00 0.0000e+00
       11 -1    0    0    0    0 +3.8616406573e-19 +1.3430455123e-18 -7.3552142626e-16 5.1100000000e-04 5.1099893000e-04 0.0000e+00 1.0000e+00
       50  1    1    2    0    0 -8.6443989832e-03 -2.7642893972e-02 +1.5856115347e+01 1.5856142585e+01 4.9935713700e-03 0.0000e+00 0.0000e+00
       11  1    1    2    0    0 +3.1867517736e-04 -1.3132596079e-03 +1.7771703001e-03 2.2903403346e-03 5.1099893000e-04 0.0000e+00 1.0000e+00
<vert_displacement>
195.01287670573265
</vert_displacement>
</event>
<event>
 4   1200 +8.5212000e+10 7.55531800e-03 7.81665300e-03            nan
       50 -1    0    0    0    0 -5.5967924835e-03 +3.3622471265e-02 +1.3920778522e+01 1.3920821146e+01 4.9935713700e-03 0.0000e+00 0.0000e+00
       11 -1    0    0    0    0 +2.3433864369e-19 -1.4077785334e-18 -5.8286534074e-16 5.1100000000e-04 5.1099893000e-04 0.0000e+00 1.0000e+00
       50  1    1    2    0    0 -6.3821264554e-03 +2.7932939375e-02 +1.3889264107e+01 1.3889294559e+01 4.9935713700e-03 0.0000e+00 0.0000e+00
       11  1    1    2    0    0 +7.8533397193e-04 +5.6895318906e-03 +3.1514414920e-02 3.2037587148e-02 5.1099893000e-04 0.0000e+00 1.0000e+00
<vert_displacement>
381.35863416834246
</vert_displacement>
</event>
<event>
 4   1200 +8.5212000e+10 7.12967100e-03 7.81665300e-03            nan
       50 -1    0    0    0    0 +1.2549021903e-01 -7.7749942948e-02 +4.8490328137e+01 4.8490553107e+01 4.9935713700e-03 0.0000e+00 0.0000e+00
       11 -1    0    0    0    0 -1.3108887881e-17 +8.1218703152e-18 -5.0653690760e-15 5.1100000000e-04 5.1099893000e-04 0.0000e+00 1.0000e+00
       50  1    1    2    0    0 +1.2633764469e-01 -8.2715560354e-02 +4.8464965335e+01 4.8465200844e+01 4.9935713700e-03 0.0000e+00 0.0000e+00
       11  1    1    2    0    0 -8.4742566052e-04 +4.9656174057e-03 +2.5362802302e-02 2.5863262497e-02 5.1099893000e-04 0.0000e+00 1.0000e+00
<vert_displacement>
450.15493027921895
</vert_displacement>
</event>
<event>
 4   1200 +8.5212000e+10 6.14186400e-03 7.81665300e-03            nan
       50 -1    0    0    0    0 +8.3631118818e-03 -7.3368599192e-04 +9.0242617678e+00 9.0242670544e+00 4.9935713700e-03 0.0000e+00 0.0000e+00
       11 -1    0    0    0    0 +7.5880168899e-19 -6.6568781779e-20 +8.1878912635e-16 5.1100000000e-04 5.1099893000e-04 0.0000e+00 1.0000e+00
       50  1    1    2    0    0 +1.1398170213e-02 +1.1393725211e-03 +9.0117294638e+00 9.0117381276e+00 4.9935713700e-03 0.0000e+00 0.0000e+00
       11  1    1    2    0    0 -3.0350583308e-03 -1.8730585130e-03 +1.2532303991e-02 1.3039926783e-02 5.1099893000e-04 0.0000e+00 1.0000e+00
<vert_displacement>
288.39803300775435
</vert_displacement>
</event>
<event>
 4   1200 +8.5212000e+10 1.85443400e-02 7.81665300e-03            nan
       50 -1    0    0    0    0 -3.3067663395e-02 +5.0096700729e-03 +1.1050554299e+01 1.1050606038e+01 4.9935713700e-03 0.0000e+00 0.0000e+00
       11 -1    0    0    0    0 -4.8172112096e-18 +7.2979570837e-19 +1.6098160128e-15 5.1100000000e-04 5.1099893000e-04 0.0000e+00 1.0000e+00
       50  1    1    2    0    0 -1.4255508991e-02 +5.4344641266e-03 +1.0729130926e+01 1.0729142935e+01 4.9935713700e-03 0.0000e+00 0.0000e+00
       11  1    1    2    0    0 -1.8812154404e-02 -4.2479405366e-04 +3.2142337283e-01 3.2197410350e-01 5.1099893000e-04 0.0000e+00 1.0000e+00
<vert_displacement>
217.38861226385174
</vert_displacement>
</event>
<event>
 4   1200 +8.5212000e+10 1.31570800e-02 7.81665300e-03            nan
       50 -1    0    0    0    0 -4.5648255684e-02 +1.9419326579e-02 +1.4987279722e+01 1.4987362652e+01 4.9935713700e-03 0.0000e+00 0.0000e+00
       11 -1    0    0    0    0 -1.6062118819e-18 +6.8330219026e-19 +5.2735304792e-16 5.1100000000e-04 5.1099893000e-04 0.0000e+00 1.0000e+00
       50  1    1    2    0    0 -3.5076956040e-02 +2.5986090760e-02 +1.4840881578e+01 1.4840946622e+01 4.9935713700e-03 0.0000e+00 0.0000e+00
       11  1    1    2    0    0 -1.0571299643e-02 -6.5667641806e-03 +1.4639814348e-01 1.4692703054e-01 5.1099893000e-04 0.0000e+00 1.0000e+00
<vert_displacement>
286.42411966648012
</vert_displacement>
</event>
<event>
 4   1200 +8.5212000e+10 1.74936700e-02 7.81665300e-03            nan
       50 -1    0    0    0    0 +8.9812978456e-03 -1.6841178248e-02 +3.9569848014e+01 3.9569852932e+01 4.9935713700e-03 0.0000e+00 0.0000e+00
       11 -1    0    0    0    0 +2.9608933379e-19 -5.5520853816e-19 +1.3045119022e-15 5.1100000000e-04 5.1099893000e-04 0.0000e+00 -1.0000e+00
       50  1    1    2    0    0 +9.3941264572e-03 +3.5775318691e-05 +3.9292869722e+01 3.9292871162e+01 4.9935713700e-03 0.0000e+00 0.0000e+00
       11  1    1    2    0    0 -4.1282861155e-04 -1.6876953566e-02 +2.7697829162e-01 2.7749276952e-01 5.1099893000e-04 0.0000e+00 -1.0000e+00
<vert_displacement>
139.61593940762853
</vert_displacement>
</event>
<event>
 4   1200 +8.5212000e+10 6.42247800e-03 7.81665300e-03            nan
       50 -1    0    0    0    0 -9.4807541863e-03 -8.3742943356e-03 +4.7226720442e+00 4.7226916251e+00 4.9935713700e-03 0.0000e+00 0.0000e+00
       11 -1    0    0    0    0 +1.7133610871e-18 +1.5134017574e-18 -8.5348088861e-16 5.1100000000e-04 5.1099893000e-04 0.0000e+00 1.0000e+00
       50  1    1    2    0    0 -7.1154292132e-03 -1.1642676324e-02 +4.7066532793e+00 4.7066757068e+00 4.9935713700e-03 0.0000e+00 0.0000e+00
       11  1    1    2    0    0 -2.3653249730e-03 +3.2683819888e-03 +1.6018764869e-02 1.6526918373e-02 5.1099893000e-04 0.0000e+00 1.0000e+00
<vert_displacement>
263.77516237439676
</vert_displacement>
</event>
<event>
 4   1200 +8.5212000e+10 1.36279000e-02 7.81665300e-03            nan
       50 -1    0    0    0    0 +1.4345329742e-02 +5.0126418170e-02 +2.6353598605e+01 2.6353650654e+01 4.9935713700e-03 0.0000e+00 0.0000e+00
       11 -1    0    0    0    0 +4.8347049507e-19 +1.6893751936e-18 +8.8817668146e-16 5.1100000000e-04 5.1099893000e-04 0.0000e+00 1.0000e+00
       50  1    1    2    0    0 +4.9187668247e-03 +5.8400944708e-02 +2.6195310368e+01 2.6195376407e+01 4.9935713700e-03 0.0000e+00 0.0000e+00
       11  1    1    2    0    0 +9.4265629170e-03 -8.2745265381e-03 +1.5828823645e-01 1.5878524741e-01 5.1099893000e-04 0.0000e+00 1.0000e+00
<vert_displacement>
45.134208020934530
</vert_displacement>
</event>
<event>
 4   1200 +8.5212000e+10 3.76267000e-02 7.81665300e-03            nan
       50 -1    0    0    0    0 +5.1744761531e-02 -8.3478317970e-02 +3.6533407148e+01 3.6533539507e+01 4.9935713700e-03 0.0000e+00 0.0000e+00
       11 -1    0    0    0    0 +7.2727156941e-19 -1.1732860588e-18 +5.1347629338e-16 5.1100000000e-04 5.1099893000e-04 0.0000e+00 1.0000e+00
       50  1    1    2    0    0 +8.5700592723e-02 -9.0123687882e-02 +3.5117521593e+01 3.5117742164e+01 4.9935713700e-03 0.0000e+00 0.0000e+00
       11  1    1    2    0    0 -3.3955831193e-02 +6.6453699120e-03 +1.4158855546e+00 1.4163083437e+00 5.1099893000e-04 0.0000e+00 1.0000e+00
<vert_displacement>
434.55334576187863
</vert_displacement>
</event>
<event>
 4   1200 +8.5212000e+10 9.57613700e-03 7.81665300e-03            nan
       50 -1    0    0    0    0 -6.4880253315e-02 +1.7443076435e-02 +2.8678025883e+01 2.8678105014e+01 4.9935713700e-03 0.0000e+00 0.0000e+00
       11 -1    0    0    0    0 -1.1239975437e-17 +3.0218709185e-18 +4.9682344017e-15 5.1100000000e-04 5.1099893000e-04 0.0000e+00 1.0000e+00
       50  1    1    2    0    0 -5.8309324140e-02 +2.2454415469e-02 +2.8612557332e+01 2.8612625993e+01 4.9935713700e-03 0.0000e+00 0.0000e+00
       11  1    1    2    0    0 -6.5709291750e-03 -5.0113390340e-03 +6.5468551307e-02 6.5990021665e-02 5.1099893000e-04 0.0000e+00 1.0000e+00
<vert_displacement>
406.98839647878191
</vert_displacement>
</event>
<event>
 4   1200 +8.5212000e+10 1.70222400e-02 7.81665300e-03            nan
       50 -1    0    0    0    0 -1.9798467546e-03 -3.9979461493e-03 +3.0841901298e+00 3.0841973990e+00 4.9935713700e-03 0.0000e+00 0.0000e+00
       11 -1    0    0    0    0 +1.2026631105e-19 +2.4285628877e-19 -1.8734993940e-16 5.1100000000e-04 5.1099893000e-04 0.0000e+00 -1.0000e+00
       50  1    1    2    0    0 +1.4421536186e-02 -2.2852639753e-03 +2.7983352205e+00 2.7983777703e+00 4.9935713700e-03 0.0000e+00 0.0000e+00
       11  1    1    2    0    0 -1.6401382940e-02 -1.7126821740e-03 +2.8585490930e-01 2.8633062871e-01 5.1099893000e-04 0.0000e+00 -1.0000e+00
<vert_displacement>
270.06839158030357
</vert_displacement>
</event>
<event>
 4   1200 +8.5212000e+10 1.20860500e-02 7.81665300e-03            nan
       50 -1    0    0    0    0 -6.7807933486e-02 -4.4878562908e-03 +2.0809807472e+01 2.0809919030e+01 4.9935713700e-03 0.0000e+00 0.0000e+00
       11 -1    0    0    0    0 -5.8785975085e-19 -3.8907395423e-20 +1.8041027955e-16 5.1100000000e-04 5.1099893000e-04 0.0000e+00 1.0000e+00
       50  1    1    2    0    0 -6.4067122193e-02 +6.0210999061e-03 +2.0690605372e+01 2.0690706040e+01 4.9935713700e-03 0.0000e+00 0.0000e+00
       11  1    1    2    0    0 -3.7408112931e-03 -1.0508956197e-02 +1.1920210067e-01 1.1972398989e-01 5.1099893000e-04 0.0000e+00 1.0000e+00
<vert_displacement>
394.70433048473257
</vert_displacement>
</event>
<event>
 4   1200 +8.5212000e+10 1.93985600e-02 7.81665300e-03            nan
       50 -1    0    0    0    0 +7.8458933942e-02 -2.1353039992e-02 +2.6581647160e+01 2.6581771996e+01 4.9935713700e-03 0.0000e+00 0.0000e+00
       11 -1    0    0    0    0 -1.2288531287e-19 +3.3443928795e-20 -4.1633168636e-17 5.1100000000e-04 5.1099893000e-04 0.0000e+00 1.0000e+00
       50  1    1    2    0    0 +6.0556979540e-02 -1.2909569544e-02 +2.6233323667e+01 2.6233397214e+01 4.9935713700e-03 0.0000e+00 0.0000e+00
       11  1    1    2    0    0 +1.7901954402e-02 -8.4434704480e-03 +3.4832349307e-01 3.4888578233e-01 5.1099893000e-04 0.0000e+00 1.0000e+00
<vert_displacement>
53.779820139822981
</vert_displacement>
</event>
<event>
 4   1200 +8.5212000e+10 4.13548300e-02 7.81665300e-03            nan
       50 -1    0    0    0    0 +1.7106495633e-02 +2.8242943192e-02 +4.7694410066e+01 4.7694421757e+01 4.9935713700e-03 0.0000e+00 0.0000e+00
       11 -1    0    0    0    0 -1.2742471578e-18 -2.1037909143e-18 -3.5527128274e-15 5.1100000000e-04 5.1099893000e-04 0.0000e+00 1.0000e+00
       50  1    1    2    0    0 +5.3278490787e-02 +4.5454137282e-02 +4.5983992800e+01 4.5984046401e+01 4.9935713700e-03 0.0000e+00 0.0000e+00
       11  1    1    2    0    0 -3.6171995154e-02 -1.7211194091e-02 +1.7104172663e+00 1.7108863564e+00 5.1099893000e-04 0.0000e+00 1.0000e+00
<vert_displacement>
277.91414364594681
</vert_displacement>
</event>
<event>
 4   1200 +8.5212000e+10 6.30730900e-03 7.81665300e-03            nan
       50 -1    0    0    0    0 -1.5280461462e-02 -4.0816183033e-03 +5.8305166162e+00 5.8305402065e+00 4.9935713700e-03 0.0000e+00 0.0000e+00
       11 -1    0    0    0    0 +1.1638528002e-18 +3.1088085285e-19 -4.4408757594e-16 5.1100000000e-04 5.1099893000e-04 0.0000e+00 1.0000e+00
       50  1    1    2    0    0 -1.1458001107e-02 -3.3465513137e-03 +5.8159624772e+00 5.8159768704e+00 4.9935713700e-03 0.0000e+00 0.0000e+00
       11  1    1    2    0    0 -3.8224603551e-03 -7.3506698959e-04 +1.4554138948e-02 1.5074336040e-02 5.1099893000e-04 0.0000e+00 1.0000e+00
<vert_displacement>
438.10269492365978
</vert_displacement>
</event>
<event>
 4   1200 +8.5212000e+10 9.75817800e-03 7.81665300e-03            nan
       50 -1    0    0    0    0 -6.3163074506e-03 +6.2773243986e-03 +3.9977516580e+00 3.9977646948e+00 4.9935713700e-03 0.0000e+00 0.0000e+00
       11 -1    0    0    0    0 +2.0830045568e-19 -2.0701486476e-19 -1.3183865709e-16 5.1100000000e-04 5.1099893000e-04 0.0000e+00 1.0000e+00
       50  1    1    2    0    0 -5.5802338886e-03 +1.4527705268e-02 +3.9277239261e+00 3.9277579315e+00 4.9935713700e-03 0.0000e+00 0.0000e+00
       11  1    1    2    0    0 -7.3607356198e-04 -8.2503808697e-03 +7.0027731945e-02 7.0517763365e-02 5.1099893000e-04 0.0000e+00 1.0000e+00
<vert_displacement>
43.586257945802657
</vert_displacement>
</event>
<event>
 4   1200 +8.5212000e+10 2.97437000e-02 7.81665300e-03            nan
       50 -1    0    0    0    0 +3.4411620460e-02 -1.3804413628e-02 +1.7501260386e+01 1.7501300373e+01 4.9935713700e-03 0.0000e+00 0.0000e+00
       11 -1    0    0    0    0 +2.5376867650e-18 -1.0180072108e-18 +1.2906313698e-15 5.1100000000e-04 5.1099893000e-04 0.0000e+00 1.0000e+00
       50  1    1    2    0    0 +9.4809667163e-03 -3.1051438076e-02 +1.6615088102e+01 1.6615120573e+01 4.9935713700e-03 0.0000e+00 0.0000e+00
       11  1    1    2    0    0 +2.4930653744e-02 +1.7247024448e-02 +8.8617228331e-01 8.8669079965e-01 5.1099893000e-04 0.0000e+00 1.0000e+00
<vert_displacement>
127.62028306116534
</vert_displacement>
</event>
<event>
 4   1200 +8.5212000e+10 9.23618700e-03 7.81665300e-03            nan
       50 -1    0    0    0    0 +3.8654243584e-03 +5.6431001862e-03 +2.1738677965e+01 2.1738679615e+01 4.9935713700e-03 0.0000e+00 0.0000e+00
       11 -1    0    0    0    0 +3.2573033250e-19 +4.7553094553e-19 +1.8318679000e-15 5.1100000000e-04 5.1099893000e-04 0.0000e+00 1.0000e+00
       50  1    1    2    0    0 +1.1609782028e-02 +6.1105022842e-03 +2.1679441667e+01 2.1679446212e+01 4.9935713700e-03 0.0000e+00 0.0000e+00
       11  1    1    2    0    0 -7.7443576693e-03 -4.6740209792e-04 +5.9236298578e-02 5.9744403333e-02 5.1099893000e-04 0.0000e+00 1.0000e+00
<vert_displacement>
75.052011748003565
</vert_displacement>
</event>
<event>
 4   1200 +8.5212000e+10 9.38441200e-03 7.81665300e-03            nan
       50 -1    0    0    0    0 -9.8531042687e-03 +1.7647380891e-02 +8.8394334156e+00 8.8394579335e+00 4.9935713700e-03 0.0000e+00 0.0000e+00
       11 -1    0    0    0    0 +1.1756589373e-18 -2.1056613731e-18 -1.0547091162e-15 5.1100000000e-04 5.1099893000e-04 0.0000e+00 1.0000e+00
       50  1    1    2    0    0 -7.7072486135e-03 +9.8538016469e-03 +8.7772360919e+00 8.7772464274e+00 4.9935713700e-03 0.0000e+00 0.0000e+00
       11  1    1    2    0    0 -2.1458556552e-03 +7.7935792437e-03 +6.2197323716e-02 6.2722506098e-02 5.1099893000e-04 0.0000e+00 1.0000e+00
<vert_displacement>
425.07837074787858
</vert_displacement>
</event>
<event>
 4   1200 +8.5212000e+10 2.92864700e-02 7.81665300e-03            nan
       50 -1    0    0    0    0 -5.7831966535e-03 +6.5414782618e-03 +7.1428200151e+00 7.1428270972e+00 4.9935713700e-03 0.0000e+00 0.0000e+00
       11 -1    0    0    0    0 +6.7416999904e-20 -7.6256587104e-20 -8.3266664636e-17 5.1100000000e-04 5.1099893000e-04 0.0000e+00 1.0000e+00
       50  1    1    2    0    0 -1.1853302469e-02 -2.2355830265e-02 +6.2041772000e+00 6.2042308104e+00 4.9935713700e-03 0.0000e+00 0.0000e+00
       11  1    1    2    0    0 +6.0701058160e-03 +2.8897308527e-02 +9.3864281505e-01 9.3910728673e-01 5.1099893000e-04 0.0000e+00 1.0000e+00
<vert_displacement>
167.55350531474599
</vert_displacement>
</event>
<event>
 4   1200 +8.5212000e+10 1.67479300e-02 7.81665300e-03            nan
       50 -1    0    0    0    0 +4.4315846666e-02 +2.4237380663e-02 +1.3604549981e+01 1.3604644666e+01 4.9935713700e-03 0.0000e+00 0.0000e+00
       11 -1    0    0    0    0 -7.6849499142e-19 -4.2030801724e-19 -2.3592076668e-16 5.1100000000e-04 5.1099893000e-04 0.0000e+00 1.0000e+00
       50  1    1    2    0    0 +5.5596469674e-02 +3.4218071154e-02 +1.3349645833e+01 1.3349806390e+01 4.9935713700e-03 0.0000e+00 0.0000e+00
       11  1    1    2    0    0 -1.1280623008e-02 -9.9806904914e-03 +2.5490414861e-01 2.5534927597e-01 5.1099893000e-04 0.0000e+00 1.0000e+00
<vert_displacement>
74.493809880644307
</vert_displacement>
</event>
<event>
 4   1200 +8.5212000e+10 1.75998800e-02 7.81665300e-03            nan
       50 -1    0    0    0    0 -2.9750653048e-02 +5.3672904858e-02 +2.6220234910e+01 2.6220307198e+01 4.9935713700e-03 0.0000e+00 0.0000e+00
       11 -1    0    0    0    0 -6.4559897927e-19 +1.1647197302e-18 +5.6898774177e-16 5.1100000000e-04 5.1099893000e-04 0.0000e+00 1.0000e+00
       50  1    1    2    0    0 -1.7460645644e-02 +6.4992875902e-02 +2.5938500921e+01 2.5938588703e+01 4.9935713700e-03 0.0000e+00 0.0000e+00
       11  1    1    2    0    0 -1.2290007404e-02 -1.1319971044e-02 +2.8173398857e-01 2.8222949431e-01 5.1099893000e-04 0.0000e+00 1.0000e+00
<vert_displacement>
67.516735337171397
</vert_displacement>
</event>
<event>
 4   1200 +8.5212000e+10 1.18457500e-02 7.81665300e-03            nan
       50 -1    0    0    0    0 +1.9584569689e-02 -5.9971323593e-04 +5.9105537325e+00 5.9105883189e+00 4.9935713700e-03 0.0000e+00 0.0000e+00
       11 -1    0    0    0    0 +1.8853308632e-18 -5.7732076361e-20 +5.6898617369e-16 5.1100000000e-04 5.1099893000e-04 0.0000e+00 1.0000e+00
       50  1    1    2    0    0 +1.1523204235e-02 -8.0984635027e-03 +5.7954138941e+00 5.7954331597e+00 4.9935713700e-03 0.0000e+00 0.0000e+00
       11  1    1    2    0    0 +8.0613654543e-03 +7.4987502668e-03 +1.1513983846e-01 1.1566615922e-01 5.1099893000e-04 0.0000e+00 1.0000e+00
<vert_displacement>
18.067451749239414
</vert_displacement>
</event>
<event>
 4   1200 +8.5212000e+10 5.47321700e-03 7.81665300e-03            nan
       50 -1    0    0    0    0 +7.3063927790e-02 -6.7909740969e-02 +2.6670993610e+01 2.6671180610e+01 4.9935713700e-03 0.0000e+00 0.0000e+00
       11 -1    0    0    0    0 -6.0067300200e-18 +5.5829941267e-18 -2.1926751384e-15 5.1100000000e-04 5.1099893000e-04 0.0000e+00 1.0000e+00
       50  1    1    2    0    0 +7.0959821589e-02 -6.7091326639e-02 +2.6666088149e+01 2.6666267430e+01 4.9935713700e-03 0.0000e+00 0.0000e+00
       11  1    1    2    0    0 +2.1041062016e-03 -8.1841432994e-04 +4.9054608138e-03 5.4241801800e-03 5.1099893000e-04 0.0000e+00 1.0000e+00
<vert_displacement>
154.17247057302401
</vert_displacement>
</event>
<event>
 4   1200 +8.5212000e+10 1.15535100e-02 7.81665300e-03            nan
       50 -1    0    0    0    0 +1.3470101271e-02 -2.8666469044e-02 +2.0865122353e+01 2.0865146991e+01 4.9935713700e-03 0.0000e+00 0.0000e+00
       11 -1    0    0    0    0 -2.6877626978e-19 +5.7199767559e-19 -4.1633315454e-16 5.1100000000e-04 5.1099893000e-04 0.0000e+00 1.0000e+00
       50  1    1    2    0    0 +2.9874974021e-03 -2.8198827870e-02 +2.0758368959e+01 2.0758388927e+01 4.9935713700e-03 0.0000e+00 0.0000e+00
       11  1    1    2    0    0 +1.0482603869e-02 -4.6764117337e-04 +1.0675339406e-01 1.0726906327e-01 5.1099893000e-04 0.0000e+00 1.0000e+00
<vert_displacement>
26.969745164152883
</vert_displacement>
</event>
<event>
 4   1200 +8.5212000e+10 1.29862100e-02 7.81665300e-03            nan
       50 -1    0    0    0    0 +2.3290956731e-02 -3.3982443948e-04 +7.6119953163e+00 7.6120325942e+00 4.9935713700e-03 0.0000e+00 0.0000e+00
       11 -1    0    0    0    0 +1.5923491241e-18 -2.3233015062e-20 +5.2041460617e-16 5.1100000000e-04 5.1099893000e-04 0.0000e+00 1.0000e+00
       50  1    1    2    0    0 +2.6160529061e-02 -1.1855665137e-02 +7.4686562075e+00 7.4687131028e+00 4.9935713700e-03 0.0000e+00 0.0000e+00
       11  1    1    2    0    0 -2.8695723297e-03 +1.1515840697e-02 +1.4333910881e-01 1.4383049144e-01 5.1099893000e-04 0.0000e+00 1.0000e+00
<vert_displacement>
98.512090046165227
</vert_displacement>
</event>
<event>
 4   1200 +8.5212000e+10 5.71468000e-03 7.81665300e-03            nan
       50 -1    0    0    0    0 -5.8285756051e-02 -2.2714530544e-02 +2.9556818176e+01 2.9556884795e+01 4.9935713700e-03 0.0000e+00 0.0000e+00
       11 -1    0    0    0    0 +1.3957068197e-18 +5.4392063061e-19 -7.0776559304e-16 5.1100000000e-04 5.1099893000e-04 0.0000e+00 1.0000e+00
       50  1    1    2    0    0 -5.5996990200e-02 -2.1111434967e-02 +2.9549266254e+01 2.9549327275e+01 4.9935713700e-03 0.0000e+00 0.0000e+00
       11  1    1    2    0    0 -2.2887658509e-03 -1.6030955771e-03 +7.5519219615e-03 8.0685196764e-03 5.1099893000e-04 0.0000e+00 1.0000e+00
<vert_displacement>
211.46647309797333
</vert_displacement>
</event>
<event>
 4   1200 +8.5212000e+10 6.47619300e-03 7.81665300e-03            nan
       50 -1    0    0    0    0 +1.9191198042e-03 -2.8079496377e-03 +6.3633139423e+00 6.3633168106e+00 4.9935713700e-03 0.0000e+00 0.0000e+00
       11 -1    0    0    0    0 -2.6158867315e-19 +3.8274203538e-19 -8.6736161410e-16 5.1100000000e-04 5.1099893000e-04 0.0000e+00 1.0000e+00
       50  1    1    2    0    0 -4.9171199911e-04 +5.4865697488e-04 +6.3466316442e+00 6.3466336514e+00 4.9935713700e-03 0.0000e+00 0.0000e+00
       11  1    1    2    0    0 +2.4108318033e-03 -3.3566066126e-03 +1.6682298155e-02 1.7194159171e-02 5.1099893000e-04 0.0000e+00 1.0000e+00
<vert_displacement>
8.8918650185355723
</vert_displacement>
</event>
<event>
 4   1200 +8.5212000e+10 7.89986600e-03 7.81665300e-03            nan
       50 -1    0    0    0    0 -1.6174073219e-02 +1.4245463665e-02 +9.0896444411e+00 9.0896713656e+00 4.9935713700e-03 0.0000e+00 0.0000e+00
       11 -1    0    0    0    0 +2.0989904235e-19 -1.8487051102e-19 -1.1796086475e-16 5.1100000000e-04 5.1099893000e-04 0.0000e+00 1.0000e+00
       50  1    1    2    0    0 -1.1003886346e-02 +1.7566285168e-02 +9.0528312573e+00 9.0528563652e+00 4.9935713700e-03 0.0000e+00 0.0000e+00
       11  1    1    2    0    0 -5.1701868727e-03 -3.3208215021e-03 +3.6813183813e-02 3.7326000457e-02 5.1099893000e-04 0.0000e+00 1.0000e+00
<vert_displacement>
424.92729671711163
</vert_displacement>
</event>
<event>
 4   1200 +8.5212000e+10 7.26814200e-03 7.81665300e-03            nan
       50 -1    0    0    0    0 -9.5552408484e-03 +1.1695510734e-03 +3.8277399339e+00 3.8277552962e+00 4.9935713700e-03 0.0000e+00 0.0000e+00
       11 -1    0    0    0    0 -2.8580645498e-19 +3.4982398823e-20 +1.1449138734e-16 5.1100000000e-04 5.1099893000e-04 0.0000e+00 -1.0000e+00
       50  1    1    2    0    0 -1.2676608097e-02 +5.3699479611e-03 +3.8002386465e+00 3.8002668641e+00 4.9935713700e-03 0.0000e+00 0.0000e+00
       11  1    1    2    0    0 +3.1213672482e-03 -4.2003968877e-03 +2.7501287383e-02 2.7999432050e-02 5.1099893000e-04 0.0000e+00 -1.0000e+00
<vert_displacement>
22.345688080777219
</vert_displacement>
</event>
<event>
 4   1200 +8.5212000e+10 8.16182600e-03 7.81665300e-03            nan
       50 -1    0    0    0    0 +4.4056358932e-02 +5.5015304146e-03 +2.0654784353e+01 2.0654832675e+01 4.9935713700e-03 0.0000e+00 0.0000e+00
       11 -1    0    0    0    0 +3.3449191093e-18 +4.1769621141e-19 +1.5681863993e-15 5.1100000000e-04 5.1099893000e-04 0.0000e+00 1.0000e+00
       50  1    1    2    0    0 +3.7776453173e-02 +7.3153185623e-03 +2.0613932777e+01 2.0613969294e+01 4.9935713700e-03 0.0000e+00 0.0000e+00
       11  1    1    2    0    0 +6.2799057594e-03 -1.8137881476e-03 +4.0851575624e-02 4.1374380897e-02 5.1099893000e-04 0.0000e+00 1.0000e+00
<vert_displacement>
377.05007877815751
</vert_displacement>
</event>
<event>
 4   1200 +8.5212000e+10 1.42347700e-02 7.81665300e-03            nan
       50 -1    0    0    0    0 +3.2660818855e-03 +5.1023535092e-02 +2.9144296720e+01 2.9144341994e+01 4.9935713700e-03 0.0000e+00 0.0000e+00
       11 -1    0    0    0    0 +3.0482398404e-19 +4.7620353046e-18 +2.7200422248e-15 5.1100000000e-04 5.1099893000e-04 0.0000e+00 1.0000e+00
       50  1    1    2    0    0 -6.0307974185e-03 +4.1145209544e-02 +2.8969393072e+01 2.8969423350e+01 4.9935713700e-03 0.0000e+00 0.0000e+00
       11  1    1    2    0    0 +9.2968793040e-03 +9.8783255477e-03 +1.7490364743e-01 1.7542964482e-01 5.1099893000e-04 0.0000e+00 1.0000e+00
<vert_displacement>
86.076190900371429
</vert_displacement>
</event>
<event>
 4   1200 +8.5212000e+10 1.03727900e-02 7.81665300e-03            nan
       50 -1    0    0    0    0 +4.4221328545e-03 -1.8470019811e-02 +2.9568276463e+01 2.9568282984e+01 4.9935713700e-03 0.0000e+00 0.0000e+00
       11 -1    0    0    0    0 +1.0377576256e-19 -4.3344251598e-19 +6.9388924725e-16 5.1100000000e-04 5.1099893000e-04 0.0000e+00 1.0000e+00
       50  1    1    2    0    0 +1.0491091338e-02 -1.1660705476e-02 +2.9487176078e+01 2.9487180673e+01 4.9935713700e-03 0.0000e+00 0.0000e+00
       11  1    1    2    0    0 -6.0689584836e-03 -6.8093143351e-03 +8.1100384510e-02 8.1613310841e-02 5.1099893000e-04 0.0000e+00 1.0000e+00
<vert_displacement>
138.29277328298352
</vert_displacement>
</event>
<event>
 4   1200 +8.5212000e+10 1.59878400e-02 7.81665300e-03            nan
       50 -1    0    0    0    0 -5.8244495706e-02 -6.8872790549e-02 +3.7745342218e+01 3.7745450322e+01 4.9935713700e-03 0.0000e+00 0.0000e+00
       11 -1    0    0    0    0 -8.5658510105e-19 -1.0128923864e-18 +5.5510992732e-16 5.1100000000e-04 5.1099893000e-04 0.0000e+00 1.0000e+00
       50  1    1    2    0    0 -6.0691507044e-02 -8.3386564073e-02 +3.7518231636e+01 3.7518373722e+01 4.9935713700e-03 0.0000e+00 0.0000e+00
       11  1    1    2    0    0 +2.4470113377e-03 +1.4513773524e-02 +2.2711058262e-01 2.2758759927e-01 5.1099893000e-04 0.0000e+00 1.0000e+00
<vert_displacement>
28.792964549645596
</vert_displacement>
</event>
<event>
 4   1200 +8.5212000e+10 1.70515200e-02 7.81665300e-03            nan
       50 -1    0    0    0    0 -1.0699114020e-01 -1.1776586254e-01 +4.8520545955e+01 4.8520807089e+01 4.9935713700e-03 0.0000e+00 0.0000e+00
       11 -1    0    0    0    0 -4.8962098957e-19 -5.3892909306e-19 +2.2204341108e-16 5.1100000000e-04 5.1099893000e-04 0.0000e+00 1.0000e+00
       50  1    1    2    0    0 -9.4751590187e-02 -1.2852392185e-01 +4.8259035964e+01 4.8259300382e+01 4.9935713700e-03 0.0000e+00 0.0000e+00
       11  1    1    2    0    0 -1.2239550011e-02 +1.0758059318e-02 +2.6150999123e-01 2.6201770753e-01 5.1099893000e-04 0.0000e+00 1.0000e+00
<vert_displacement>
38.810063203833195
</vert_displacement>
</event>
<event>
 4   1200 +8.5212000e+10 1.40328800e-02 7.81665300e-03            nan
       50 -1    0    0    0    0 -1.2653275450e-02 +1.4899983835e-02 +8.1524714958e+00 8.1524964607e+00 4.9935713700e-03 0.0000e+00 0.0000e+00
       11 -1    0    0    0    0 -7.1079867169e-19 +8.3700767920e-19 +4.5796568117e-16 5.1100000000e-04 5.1099893000e-04 0.0000e+00 1.0000e+00
       50  1    1    2    0    0 -5.4706807407e-03 +3.4431504130e-03 +7.9805720225e+00 7.9805762027e+00 4.9935713700e-03 0.0000e+00 0.0000e+00
       11  1    1    2    0    0 -7.1825947088e-03 +1.1456833422e-02 +1.7189947330e-01 1.7243125801e-01 5.1099893000e-04 0.0000e+00 1.0000e+00
<vert_displacement>
305.40238196178802
</vert_displacement>
</event>
<event>
 4   1200 +8.5212000e+10 2.91119500e-02 7.81665300e-03            nan
       50 -1    0    0    0    0 -3.9888779455e-03 +2.4451492313e-02 +2.5827402511e+01 2.5827414876e+01 4.9935713700e-03 0.0000e+00 0.0000e+00
       11 -1    0    0    0    0 -6.4300050570e-21 +3.9415399861e-20 +4.1633344269e-17 5.1100000000e-04 5.1099893000e-04 0.0000e+00 1.0000e+00
       50  1    1    2    0    0 -7.6483790599e-03 -4.7651108031e-03 +2.4995743519e+01 2.4995745642e+01 4.9935713700e-03 0.0000e+00 0.0000e+00
       11  1    1    2    0    0 +3.6595011144e-03 +2.9216603116e-02 +8.3165899171e-01 8.3218023376e-01 5.1099893000e-04 0.0000e+00 1.0000e+00
<vert_displacement>
320.76924895820400
</vert_displacement>
</event>
<event>
 4   1200 +8.5212000e+10 1.68250700e-02 7.81665300e-03            nan
       50 -1    0    0    0    0 -2.3745248960e-02 -1.8554836047e-02 +2.7332519754e+01 2.7332536823e+01 4.9935713700e-03 0.0000e+00 0.0000e+00
       11 -1    0    0    0    0 +9.7656702217e-19 +7.6310174786e-19 -1.1241001292e-15 5.1100000000e-04 5.1099893000e-04 0.0000e+00 1.0000e+00
       50  1    1    2    0    0 -3.8386672132e-02 -1.2279260027e-02 +2.7077535512e+01 2.7077565966e+01 4.9935713700e-03 0.0000e+00 0.0000e+00
       11  1    1    2    0    0 +1.4641423172e-02 -6.2755760197e-03 +2.5498424256e-01 2.5548185689e-01 5.1099893000e-04 0.0000e+00 1.0000e+00
<vert_displacement>
461.18090764678118
</vert_displacement>
</event>
<event>
 4   1200 +8.5212000e+10 8.97136400e-03 7.81665300e-03            nan
       50 -1    0    0    0    0 +2.1071100992e-03 -4.7632652554e-02 +1.9713160655e+01 1.9713218947e+01 4.9935713700e-03 0.0000e+00 0.0000e+00
       11 -1    0    0    0    0 -9.6419149556e-20 +2.1796202543e-18 -9.0205356906e-16 5.1100000000e-04 5.1099893000e-04 0.0000e+00 1.0000e+00
       50  1    1    2    0    0 +3.7806936712e-03 -4.0239484132e-02 +1.9658672052e+01 1.9658714233e+01 4.9935713700e-03 0.0000e+00 0.0000e+00
       11  1    1    2    0    0 -1.6735835720e-03 -7.3931684227e-03 +5.4488603192e-02 5.5015714291e-02 5.1099893000e-04 0.0000e+00 1.0000e+00
<vert_displacement>
19.292360720952615
</vert_displacement>
</event>
<event>
 4   1200 +8.5212000e+10 1.19461200e-02 7.81665300e-03            nan
       50 -1    0    0    0    0 -1.2327369620e-03 +7.1573752895e-04 +9.7927690495e-01 9.7929067403e-01 4.9935713700e-03 0.0000e+00 0.0000e+00
       11 -1    0    0    0    0 -9.3899473448e-20 +5.4518830185e-20 +7.4593030442e-17 5.1100000000e-04 5.1099893000e-04 0.0000e+00 1.0000e+00
       50  1    1    2    0    0 +9.9633419599e-04 +1.1272727737e-02 +8.4514931500e-01 8.4523982838e-01 4.9935713700e-03 0.0000e+00 0.0000e+00
       11  1    1    2    0    0 -2.2290711580e-03 -1.0556990208e-02 +1.3412758995e-01 1.3456184565e-01 5.1099893000e-04 0.0000e+00 1.0000e+00
<vert_displacement>
39.038963996061376
</vert_displacement>
</event>
<event>
 4   1200 +8.5212000e+10 2.32046500e-02 7.81665300e-03            nan
       50 -1    0    0    0    0 +3.7859216510e-02 -2.0403521086e-02 +2.2812454029e+01 2.2812495115e+01 4.9935713700e-03 0.0000e+00 0.0000e+00
       11 -1    0    0    0    0 +1.2206606823e-18 -6.5785238749e-19 +7.3552144673e-16 5.1100000000e-04 5.1099893000e-04 0.0000e+00 1.0000e+00
       50  1    1    2    0    0 +5.0265799093e-02 -1.5671330953e-03 +2.2298375670e+01 2.2298432940e+01 4.9935713700e-03 0.0000e+00 0.0000e+00
       11  1    1    2    0    0 -1.2406582583e-02 -1.8836387991e-02 +5.1407835868e-01 5.1457317535e-01 5.1099893000e-04 0.0000e+00 1.0000e+00
<vert_displacement>
249.51332444703280
</vert_displacement>
</event>
<event>
 4   1200 +8.5212000e+10 1.18117800e-02 7.81665300e-03            nan
       50 -1    0    0    0    0 -2.3812930047e-02 -1.1530305424e-02 +9.2231261146e+00 9.2231654146e+00 4.9935713700e-03 0.0000e+00 0.0000e+00
       11 -1    0    0    0    0 -1.6123735262e-19 -7.8071699606e-20 +6.2449788188e-17 5.1100000000e-04 5.1099893000e-04 0.0000e+00 1.0000e+00
       50  1    1    2    0    0 -2.4724664131e-02 -7.5209886816e-04 +9.1096138223e+00 9.1096487749e+00 4.9935713700e-03 0.0000e+00 0.0000e+00
       11  1    1    2    0    0 +9.1173408341e-04 -1.0778206555e-02 +1.1351229230e-01 1.1402763971e-01 5.1099893000e-04 0.0000e+00 1.0000e+00
<vert_displacement>
424.93962246957648
</vert_displacement>
</event>
<event>
 4   1200 +8.5212000e+10 3.37010400e-02 7.81665300e-03            nan
       50 -1    0    0    0    0 -5.2205696471e-02 -2.4121803099e-02 +3.5637841044e+01 3.5637887795e+01 4.9935713700e-03 0.0000e+00 0.0000e+00
       11 -1    0    0    0    0 -1.2197685608e-18 -5.6359782626e-19 +8.3266618431e-16 5.1100000000e-04 5.1099893000e-04 0.0000e+00 1.0000e+00
       50  1    1    2    0    0 -7.8466467320e-02 -5.1373249931e-03 +3.4515519322e+01 3.4515609257e+01 4.9935713700e-03 0.0000e+00 0.0000e+00
       11  1    1    2    0    0 +2.6260770849e-02 -1.8984478106e-02 +1.1223217219e+00 1.1227895382e+00 5.1099893000e-04 0.0000e+00 1.0000e+00
<vert_displacement>
143.89058310973425
</vert_displacement>
</event>
<event>
 4   1200 +8.5212000e+10 2.63390800e-02 7.81665300e-03            nan
       50 -1    0    0    0    0 -1.8126797949e-02 +2.0717293230e-02 +8.8298775351e+00 8.8299218574e+00 4.9935713700e-03 0.0000e+00 0.0000e+00
       11 -1    0    0    0    0 -2.0369979304e-18 +2.3281046963e-18 +9.9225700622e-16 5.1100000000e-04 5.1099893000e-04 0.0000e+00 1.0000e+00
       50  1    1    2    0    0 +5.0658989351e-03 +5.0263757838e-03 +8.1179331015e+00 8.1179377741e+00 4.9935713700e-03 0.0000e+00 0.0000e+00
       11  1    1    2    0    0 -2.3192696884e-02 +1.5690917446e-02 +7.1194443365e-01 7.1249508335e-01 5.1099893000e-04 0.0000e+00 1.0000e+00
<vert_displacement>
57.730623743222679
</vert_displacement>
</event>
<event>
 4   1200 +8.5212000e+10 1.03171400e-02 7.81665300e-03            nan
       50 -1    0    0    0    0 +4.2098588261e-02 -3.3644274889e-02 +1.5928135216e+01 1.5928227166e+01 4.9935713700e-03 0.0000e+00 0.0000e+00
       11 -1    0    0    0    0 -3.2277733224e-18 +2.5795661428e-18 -1.2212383372e-15 5.1100000000e-04 5.1099893000e-04 0.0000e+00 1.0000e+00
       50  1    1    2    0    0 +4.7018762498e-02 -2.6047320762e-02 +1.5847978173e+01 1.5848070114e+01 4.9935713700e-03 0.0000e+00 0.0000e+00
       11  1    1    2    0    0 -4.9201742374e-03 -7.5969541274e-03 +8.0157043588e-02 8.0668051812e-02 5.1099893000e-04 0.0000e+00 1.0000e+00
<vert_displacement>
429.73183186415201
</vert_displacement>
</event>
<event>
 4   1200 +8.5212000e+10 1.37800500e-02 7.81665300e-03            nan
       50 -1    0    0    0    0 +7.9909868606e-03 +8.9457098564e-04 +4.9761041759e+00 4.9761131781e+00 4.9935713700e-03 0.0000e+00 0.0000e+00
       11 -1    0    0    0    0 +1.1142961574e-20 +1.2474266686e-21 +6.9388848447e-18 5.1100000000e-04 5.1099893000e-04 0.0000e+00 1.0000e+00
       50  1    1    2    0    0 +1.4012780902e-02 +1.2062260413e-02 +4.8090369893e+00 4.8090751249e+00 4.9935713700e-03 0.0000e+00 0.0000e+00
       11  1    1    2    0    0 -6.0217940416e-03 -1.1167689428e-02 +1.6706718654e-01 1.6754905320e-01 5.1099893000e-04 0.0000e+00 1.0000e+00
<vert_displacement>
105.69700987148511
</vert_displacement>
</event>
<event>
 4   1200 +8.5212000e+10 5.35125300e-03 7.81665300e-03            nan
       50 -1    0    0    0    0 -2.2867536303e-02 -2.2614212377e-02 +1.3618506300e+01 1.3618545191e+01 4.9935713700e-03 0.0000e+00 0.0000e+00
       11 -1    0    0    0    0 +2.5633128703e-18 +2.5349167864e-18 -1.5265524021e-15 5.1100000000e-04 5.1099893000e-04 0.0000e+00 1.0000e+00
       50  1    1    2    0    0 -2.3383373843e-02 -2.4459614898e-02 +1.3614880753e+01 1.3614923721e+01 4.9935713700e-03 0.0000e+00 0.0000e+00
       11  1    1    2    0    0 +5.1583754019e-04 +1.8454025210e-03 +3.6255466833e-03 4.1324699020e-03 5.1099893000e-04 0.0000e+00 1.0000e+00
<vert_displacement>
413.15146257958685
</vert_displacement>
</event>
<event>
 4   1200 +8.5212000e+10 3.05400100e-02 7.81665300e-03            nan
       50 -1    0    0    0    0 -2.9834763642e-03 -1.3721755254e-02 +5.4761039433e+00 5.4761242244e+00 4.9935713700e-03 0.0000e+00 0.0000e+00
       11 -1    0    0    0    0 +2.4572712222e-19 +1.1301605975e-18 -4.5102662087e-16 5.1100000000e-04 5.1099893000e-04 0.0000e+00 1.0000e+00
       50  1    1    2    0    0 -1.6611934589e-02 -3.7475082909e-02 +4.3587878070e+00 4.3589834159e+00 4.9935713700e-03 0.0000e+00 0.0000e+00
       11  1    1    2    0    0 +1.3628458225e-02 +2.3753327655e-02 +1.1173161363e+00 1.1176518085e+00 5.1099893000e-04 0.0000e+00 1.0000e+00
<vert_displacement>
362.75461372985421
</vert_displacement>
</event>
<event>
 4   1200 +8.5212000e+10 7.08534800e-03 7.81665300e-03            nan
       50 -1    0    0    0    0 -6.1516837973e-02 +5.5455755912e-02 +2.1775041275e+01 2.1775199359e+01 4.9935713700e-03 0.0000e+00 0.0000e+00
       11 -1    0    0    0    0 -2.9404471770e-18 +2.6507331374e-18 +1.0408265567e-15 5.1100000000e-04 5.1099893000e-04 0.0000e+00 1.0000e+00
       50  1    1    2    0    0 -5.8994849313e-02 +5.1004845387e-02 +2.1750308308e+01 2.1750448692e+01 4.9935713700e-03 0.0000e+00 0.0000e+00
       11  1    1    2    0    0 -2.5219886608e-03 +4.4509105255e-03 +2.4732967122e-02 2.5261666886e-02 5.1099893000e-04 0.0000e+00 1.0000e+00
<vert_displacement>
448.97171774519893
</vert_displacement>
</event>
<event>
 4   1200 +8.5212000e+10 1.24309300e-02 7.81665300e-03            nan
       50 -1    0    0    0    0 +2.0014474712e-02 -5.3947428622e-03 +7.4089198407e+00 7.4089505211e+00 4.9935713700e-03 0.0000e+00 0.0000e+00
       11 -1    0    0    0    0 -5.6234016295e-20 +1.5157432927e-20 -2.0816600238e-17 5.1100000000e-04 5.1099893000e-04 0.0000e+00 1.0000e+00
       50  1    1    2    0    0 +8.4810455059e-03 -3.1812564923e-03 +7.2798848967e+00 7.2798922447e+00 4.9935713700e-03 0.0000e+00 0.0000e+00
       11  1    1    2    0    0 +1.1533429206e-02 -2.2134863699e-03 +1.2903494397e-01 1.2956927644e-01 5.1099893000e-04 0.0000e+00 1.0000e+00
<vert_displacement>
289.31376322533924
</vert_displacement>
</event>
<event>
 4   1200 +8.5212000e+10 1.05169600e-02 7.81665300e-03            nan
       50 -1    0    0    0    0 -1.4486350204e-02 +3.5712531065e-02 +1.6161942146e+01 1.6161988866e+01 4.9935713700e-03 0.0000e+00 0.0000e+00
       11 -1    0    0    0    0 -2.2390147025e-19 +5.5197396853e-19 +2.4979947036e-16 5.1100000000e-04 5.1099893000e-04 0.0000e+00 1.0000e+00
       50  1    1    2    0    0 -5.8852855576e-03 +3.9129930191e-02 +1.6077672881e+01 1.6077722351e+01 4.9935713700e-03 0.0000e+00 0.0000e+00
       11  1    1    2    0    0 -8.6010646468e-03 -3.4173991261e-03 +8.4269264906e-02 8.4777515047e-02 5.1099893000e-04 0.0000e+00 1.0000e+00
<vert_displacement>
333.86364129334578
</vert_displacement>
</event>
<event>
 4   1200 +8.5212000e+10 1.86649700e-02 7.81665300e-03            nan
       50 -1    0    0    0    0 +2.1991695402e-02 -3.0376907948e-05 +3.6409521126e+01 3.6409528110e+01 4.9935713700e-03 0.0000e+00 0.0000e+00
       11 -1    0    0    0    0 -1.8692559483e-18 +2.5819844645e-21 -3.0947461166e-15 5.1100000000e-04 5.1099893000e-04 0.0000e+00 1.0000e+00
       50  1    1    2    0    0 +6.3150820560e-03 +9.1185716575e-03 +3.6090241605e+01 3.6090243655e+01 4.9935713700e-03 0.0000e+00 0.0000e+00
       11  1    1    2    0    0 +1.5676613346e-02 -9.1489485655e-03 +3.1927952093e-01 3.1979545505e-01 5.1099893000e-04 0.0000e+00 1.0000e+00
<vert_displacement>
129.45575393356702
</vert_displacement>
</event>
<event>
 4   1200 +8.5212000e+10 1.59036300e-02 7.81665300e-03            nan
       50 -1    0    0    0    0 -3.1741212729e-02 -2.1163777160e-02 +1.8679073126e+01 1.8679112751e+01 4.9935713700e-03 0.0000e+00 0.0000e+00
       11 -1    0    0    0    0 +2.3582374422e-20 +1.5723788547e-20 -1.3877758863e-17 5.1100000000e-04 5.1099893000e-04 0.0000e+00 1.0000e+00
       50  1    1    2    0    0 -2.4082576685e-02 -7.6767155267e-03 +1.8453279421e+01 1.8453297408e+01 4.9935713700e-03 0.0000e+00 0.0000e+00
       11  1    1    2    0    0 -7.6586360439e-03 -1.3487061634e-02 +2.2579370422e-01 2.2632634297e-01 5.1099893000e-04 0.0000e+00 1.0000e+00
<vert_displacement>
407.96412678360684
</vert_displacement>
</event>
<event>
 4   1200 +8.5212000e+10 2.00086900e-02 7.81665300e-03            nan
       50 -1    0    0    0    0 +5.1427752391e-03 -3.7554557826e-03 +1.6118337310e+00 1.6118540455e+00 4.9935713700e-03 0.0000e+00 0.0000e+00
       11 -1    0    0    0    0 +5.7562216677e-19 -4.2034183768e-19 +1.8040983352e-16 5.1100000000e-04 5.1099893000e-04 0.0000e+00 1.0000e+00
       50  1    1    2    0    0 -1.0763493123e-02 -1.6049550635e-02 +6.0112190509e-01 6.0145317473e-01 4.9935713700e-03 0.0000e+00 0.0000e+00
       11  1    1    2    0    0 +1.5906268362e-02 +1.2294094853e-02 +1.0107118259e+00 1.0109118707e+00 5.1099893000e-04 0.0000e+00 1.0000e+00
<vert_displacement>
192.19564884483003
</vert_displacement>
</event>
<event>
 4   1200 +8.5212000e+10 7.13454400e-03 7.81665300e-03            nan
       50 -1    0    0    0    0 -1.1546628784e-03 +6.0428306739e-04 +2.9110897490e+00 2.9110943236e+00 4.9935713700e-03 0.0000e+00 0.0000e+00
       11 -1    0    0    0    0 -1.4036537444e-19 +7.3459033465e-20 +3.5388355364e-16 5.1100000000e-04 5.1099893000e-04 0.0000e+00 1.0000e+00
       50  1    1    2    0    0 -7.1012856006e-04 -4.4781730072e-03 +2.8854517853e+00 2.8854596686e+00 4.9935713700e-03 0.0000e+00 0.0000e+00
       11  1    1    2    0    0 -4.4453431831e-04 +5.0824560746e-03 +2.5637963674e-02 2.6145654930e-02 5.1099893000e-04 0.0000e+00 1.0000e+00
<vert_displacement>
149.99111009629175
</vert_displacement>
</event>
<event>
 4   1200 +8.5212000e+10 3.89942300e-02 7.81665300e-03            nan
       50 -1    0    0    0    0 -1.0782440493e-02 -3.1876774061e-03 +1.7677247046e+01 1.7677251327e+01 4.9935713700e-03 0.0000e+00 0.0000e+00
       11 -1    0    0    0    0 +1.4390355238e-18 +4.2543068319e-19 -2.3592234501e-15 5.1100000000e-04 5.1099893000e-04 0.0000e+00 1.0000e+00
       50  1    1    2    0    0 -2.5872554271e-02 -3.8072454655e-02 +1.6066869064e+01 1.6066935780e+01 4.9935713700e-03 0.0000e+00 0.0000e+00
       11  1    1    2    0    0 +1.5090113778e-02 +3.4884777249e-02 +1.6103779819e+00 1.6108265471e+00 5.1099893000e-04 0.0000e+00 1.0000e+00
<vert_displacement>
248.80797233584968
</vert_displacement>
</event>
<event>
 4   1200 +8.5212000e+10 2.93096400e-02 7.81665300e-03            nan
       50 -1    0    0    0    0 -1.8814842417e-02 +3.2932875088e-02 +2.1075466921e+01 2.1075501642e+01 4.9935713700e-03 0.0000e+00 0.0000e+00
       11 -1    0    0    0    0 -1.6229839139e-18 +2.8408171231e-18 +1.8179872588e-15 5.1100000000e-04 5.1099893000e-04 0.0000e+00 1.0000e+00
       50  1    1    2    0    0 +3.7532607086e-03 +1.2669869932e-02 +2.0224968835e+01 2.0224973768e+01 4.9935713700e-03 0.0000e+00 0.0000e+00
       11  1    1    2    0    0 -2.2568103126e-02 +2.0263005156e-02 +8.5049808614e-01 8.5103887356e-01 5.1099893000e-04 0.0000e+00 1.0000e+00
<vert_displacement>
290.86154116879101
</vert_displacement>
</event>
<event>
 4   1200 +8.5212000e+10 1.85777100e-02 7.81665300e-03            nan
       50 -1    0    0    0    0 +2.4953589185e-02 +3.2298606665e-02 +1.2843125361e+01 1.2843191186e+01 4.9935713700e-03 0.0000e+00 0.0000e+00
       11 -1    0    0    0    0 -3.2356504259e-19 -4.1880548580e-19 -1.6653261274e-16 5.1100000000e-04 5.1099893000e-04 0.0000e+00 1.0000e+00
       50  1    1    2    0    0 +4.0060825656e-02 +4.0017312972e-02 +1.2521702953e+01 1.2521831976e+01 4.9935713700e-03 0.0000e+00 0.0000e+00
       11  1    1    2    0    0 -1.5107236471e-02 -7.7187063071e-03 +3.2142240759e-01 3.2187021025e-01 5.1099893000e-04 0.0000e+00 1.0000e+00
<vert_displacement>
331.04899803922473
</vert_displacement>
</event>
<event>
 4   1200 +8.5212000e+10 2.29471300e-02 7.81665300e-03            nan
       50 -1    0    0    0    0 -1.2872165985e-02 -3.8118373278e-02 +2.2440095195e+01 2.2440131818e+01 4.9935713700e-03 0.0000e+00 0.0000e+00
       11 -1    0    0    0    0 -2.0617986229e-18 -6.1056087705e-18 +3.5943412652e-15 5.1100000000e-04 5.1099893000e-04 0.0000e+00 1.0000e+00
       50  1    1    2    0    0 +7.0016323689e-03 -4.8129734166e-02 +2.1937994586e+01 2.1938049068e+01 4.9935713700e-03 0.0000e+00 0.0000e+00
       11  1    1    2    0    0 -1.9873798354e-02 +1.0011360888e-02 +5.0210060883e-01 5.0259375017e-01 5.1099893000e-04 0.0000e+00 1.0000e+00
<vert_displacement>
398.92675025545958
</vert_displacement>
</event>
<event>
 4   1200 +8.5212000e+10 7.77389600e-03 7.81665300e-03            nan
       50 -1    0    0    0    0 +1.8103879783e-02 -2.7085701408e-02 +2.5789342709e+01 2.5789363770e+01 4.9935713700e-03 0.0000e+00 0.0000e+00
       11 -1    0    0    0    0 +2.7375218851e-18 -4.0956801120e-18 +3.8996552624e-15 5.1100000000e-04 5.1099893000e-04 0.0000e+00 1.0000e+00
       50  1    1    2    0    0 +2.2987541791e-02 -2.3671527623e-02 +2.5754561626e+01 2.5754583247e+01 4.9935713700e-03 0.0000e+00 0.0000e+00
       11  1    1    2    0    0 -4.8836620075e-03 -3.4141737856e-03 +3.4781082656e-02 3.5291522607e-02 5.1099893000e-04 0.0000e+00 1.0000e+00
<vert_displacement>
367.72334114901525
</vert_displacement>
</event>
<event>
 4   1200 +8.5212000e+10 1.04378600e-02 7.81665300e-03            nan
       50 -1    0    0    0    0 +1.6951630144e-03 -4.6349274672e-04 +3.3896940969e+00 3.3896982306e+00 4.9935713700e-03 0.0000e+00 0.0000e+00
       11 -1    0    0    0    0 +1.5615419785e-20 -4.2695798256e-21 +3.1225018371e-17 5.1100000000e-04 5.1099893000e-04 0.0000e+00 1.0000e+00
       50  1    1    2    0    0 +7.3546272493e-03 -7.6286181825e-03 +3.3053602875e+00 3.3053810450e+00 4.9935713700e-03 0.0000e+00 0.0000e+00
       11  1    1    2    0    0 -5.6594642349e-03 +7.1651254358e-03 +8.4333809359e-02 8.4828185639e-02 5.1099893000e-04 0.0000e+00 1.0000e+00
<vert_displacement>
200.52429748396474
</vert_displacement>
</event>
<event>
 4   1200 +8.5212000e+10 1.76381700e-02 7.81665300e-03            nan
       50 -1    0    0    0    0 +2.2028396910e-02 -1.7885125069e-02 +2.2654044231e+01 2.2654062552e+01 4.9935713700e-03 0.0000e+00 0.0000e+00
       11 -1    0    0    0    0 +1.1740221851e-18 -9.5320298157e-19 +1.2073665922e-15 5.1100000000e-04 5.1099893000e-04 0.0000e+00 1.0000e+00
       50  1    1    2    0    0 +1.8833700924e-02 -9.9845811971e-04 +2.2370491777e+01 2.2370500285e+01 4.9935713700e-03 0.0000e+00 0.0000e+00
       11  1    1    2    0    0 +3.1946959854e-03 -1.6886666949e-02 +2.8355245414e-01 2.8407326691e-01 5.1099893000e-04 0.0000e+00 1.0000e+00
<vert_displacement>
133.41449235455497
</vert_displacement>
</event>
<event>
 4   1200 +8.5212000e+10 3.31901700e-02 7.81665300e-03            nan
       50 -1    0    0    0    0 -4.6197522988e-02 +2.8647728986e-03 +2.6194355912e+01 2.6194397282e+01 4.9935713700e-03 0.0000e+00 0.0000e+00
       11 -1    0    0    0    0 -9.0559132790e-19 +5.6156982573e-20 +5.1347734725e-16 5.1100000000e-04 5.1099893000e-04 0.0000e+00 1.0000e+00
       50  1    1    2    0    0 -1.2136826659e-02 +9.4434997001e-03 +2.5094706731e+01 2.5094711940e+01 4.9935713700e-03 0.0000e+00 0.0000e+00
       11  1    1    2    0    0 -3.4060696330e-02 -6.5787268015e-03 +1.0996491808e+00 1.1001963428e+00 5.1099893000e-04 0.0000e+00 1.0000e+00
<vert_displacement>
305.59033180401929
</vert_displacement>
</event>
<event>
 4   1200 +8.5212000e+10 1.56666100e-02 7.81665300e-03            nan
       50 -1    0    0    0    0 -1.0319562229e-02 +6.7543261147e-03 +3.1129682668e+00 3.1129967042e+00 4.9935713700e-03 0.0000e+00 0.0000e+00
       11 -1    0    0    0    0 +2.0702172773e-19 -1.3549918406e-19 -6.2449554997e-17 5.1100000000e-04 5.1099893000e-04 0.0000e+00 1.0000e+00
       50  1    1    2    0    0 -3.8446175563e-03 -7.4635520511e-03 +2.8795820874e+00 2.8795986560e+00 4.9935713700e-03 0.0000e+00 0.0000e+00
       11  1    1    2    0    0 -6.4749446727e-03 +1.4217878166e-02 +2.3338617941e-01 2.3390904819e-01 5.1099893000e-04 0.0000e+00 1.0000e+00
<vert_displacement>
124.19912093862470
</vert_displacement>
</event>
<event>
 4   1200 +8.5212000e+10 7.49165300e-03 7.81665300e-03            nan
       50 -1    0    0    0    0 +7.6773724367e-03 +4.4099740083e-03 +1.4440747509e+01 1.4440751087e+01 4.9935713700e-03 0.0000e+00 0.0000e+00
       11 -1    0    0    0    0 -1.6969573677e-19 -9.7475248812e-20 -3.1918905959e-16 5.1100000000e-04 5.1099893000e-04 0.0000e+00 1.0000e+00
       50  1    1    2    0    0 +2.1133818581e-03 +3.7589350475e-03 +1.4410166983e+01 1.4410168494e+01 4.9935713700e-03 0.0000e+00 0.0000e+00
       11  1    1    2    0    0 +5.5639905786e-03 +6.5103896085e-04 +3.0580526041e-02 3.1093593162e-02 5.1099893000e-04 0.0000e+00 1.0000e+00
<vert_displacement>
144.10377767133946
</vert_displacement>
</event>
<event>
 4   1200 +8.5212000e+10 9.82995100e-03 7.81665300e-03            nan
       50 -1    0    0    0    0 +1.1397840501e-02 -3.5204918375e-02 +1.4100518812e+01 1.4100568251e+01 4.9935713700e-03 0.0000e+00 0.0000e+00
       11 -1    0    0    0    0 +7.6280783121e-19 -2.3561118820e-18 +9.4368632137e-16 5.1100000000e-04 5.1099893000e-04 0.0000e+00 1.0000e+00
       50  1    1    2    0    0 +1.7539372575e-02 -2.9260838614e-02 +1.4030023859e+01 1.4030066224e+01 4.9935713700e-03 0.0000e+00 0.0000e+00
       11  1    1    2    0    0 -6.1415320735e-03 -5.9440797607e-03 +7.0494953122e-02 7.1013027227e-02 5.1099893000e-04 0.0000e+00 1.0000e+00
<vert_displacement>
304.68327415410039
</vert_displacement>
</event>
<event>
 4   1200 +8.5212000e+10 1.02203300e-02 7.81665300e-03            nan
       50 -1    0    0    0    0 -8.1930000151e-03 +2.9733387568e-02 +1.1491857403e+01 1.1491899874e+01 4.9935713700e-03 0.0000e+00 0.0000e+00
       11 -1    0    0    0    0 -1.0042398439e-18 +3.6445078035e-18 +1.4085903897e-15 5.1100000000e-04 5.1099893000e-04 0.0000e+00 1.0000e+00
       50  1    1    2    0    0 -2.3207517358e-03 +2.2771349675e-02 +1.1413532948e+01 1.1413556993e+01 4.9935713700e-03 0.0000e+00 0.0000e+00
       11  1    1    2    0    0 -5.8722482793e-03 +6.9620378926e-03 +7.8324454678e-02 7.8853881274e-02 5.1099893000e-04 0.0000e+00 1.0000e+00
<vert_displacement>
36.753868797938452
</vert_displacement>
</event>
<event>
 4   1200 +8.5212000e+10 2.54558100e-02 7.81665300e-03            nan
       50 -1    0    0    0    0 +4.2854670513e-03 +5.4560902093e-03 +2.5276315754e+00 2.5276460296e+00 4.9935713700e-03 0.0000e+00 0.0000e+00
       11 -1    0    0    0    0 +2.9411217867e-19 +3.7445220306e-19 +1.7347169413e-16 5.1100000000e-04 5.1099893000e-04 0.0000e+00 1.0000e+00
       50  1    1    2    0    0 -2.1941113305e-02 -1.8613167861e-03 +1.4769566296e+00 1.4771292085e+00 4.9935713700e-03 0.0000e+00 0.0000e+00
       11  1    1    2    0    0 +2.6226580356e-02 +7.3174069954e-03 +1.0506749458e+00 1.0510278212e+00 5.1099893000e-04 0.0000e+00 1.0000e+00
<vert_displacement>
217.73727302983741
</vert_displacement>
</event>
<event>
 4   1200 +8.5212000e+10 7.08277800e-03 7.81665300e-03            nan
       50 -1    0    0    0    0 -3.4977092758e-02 +2.8465484924e-02 +1.2080950598e+01 1.2081035799e+01 4.9935713700e-03 0.0000e+00 0.0000e+00
       11 -1    0    0    0    0 +1.4464463110e-18 -1.1771646073e-18 -4.9959688036e-16 5.1100000000e-04 5.1099893000e-04 0.0000e+00 1.0000e+00
       50  1    1    2    0    0 -2.9931328059e-02 +2.7708870000e-02 +1.2056228129e+01 1.2056298159e+01 4.9935713700e-03 0.0000e+00 0.0000e+00
       11  1    1    2    0    0 -5.0457646991e-03 +7.5661492468e-04 +2.4722469387e-02 2.5248639964e-02 5.1099893000e-04 0.0000e+00 1.0000e+00
<vert_displacement>
297.88132419781874
</vert_displacement>
</event>
<event>
 4   1200 +8.5212000e+10 1.99082700e-02 7.81665300e-03            nan
       50 -1    0    0    0    0 +3.2166154419e-02 +4.4565940856e-03 +9.2582964239e+00 9.2583547205e+00 4.9935713700e-03 0.0000e+00 0.0000e+00
       11 -1    0    0    0    0 -8.6787691684e-19 -1.2024362889e-19 -2.4979864397e-16 5.1100000000e-04 5.1099893000e-04 0.0000e+00 1.0000e+00
       50  1    1    2    0    0 +4.7389081617e-02 +1.4165600187e-02 +8.8792543504e+00 8.8793935122e+00 4.9935713700e-03 0.0000e+00 0.0000e+00
       11  1    1    2    0    0 -1.5222927198e-02 -9.7090061014e-03 +3.7904207350e-01 3.7947220836e-01 5.1099893000e-04 0.0000e+00 1.0000e+00
<vert_displacement>
59.260373221882858
</vert_displacement>
</event>
<event>
 4   1200 +8.5212000e+10 1.68592600e-02 7.81665300e-03            nan
       50 -1    0    0    0    0 +3.4023602353e-02 -5.5395040582e-02 +3.4518855372e+01 3.4518916950e+01 4.9935713700e-03 0.0000e+00 0.0000e+00
       11 -1    0    0    0    0 -4.5002773322e-18 +7.3270620455e-18 -4.5657840918e-15 5.1100000000e-04 5.1099893000e-04 0.0000e+00 1.0000e+00
       50  1    1    2    0    0 +2.9150201642e-02 -3.9559523701e-02 +3.4263270025e+01 3.4263305626e+01 4.9935713700e-03 0.0000e+00 0.0000e+00
       11  1    1    2    0    0 +4.8734007110e-03 -1.5835516881e-02 +2.5558534734e-01 2.5612232336e-01 5.1099893000e-04 0.0000e+00 1.0000e+00
<vert_displacement>
22.692973922445763
</vert_displacement>
</event>
<event>
 4   1200 +8.5212000e+10 1.80264900e-02 7.81665300e-03            nan
       50 -1    0    0    0    0 +2.0118748140e-02 +1.1667974439e-02 +2.5846658962e+01 2.5846669908e+01 4.9935713700e-03 0.0000e+00 0.0000e+00
       11 -1    0    0    0    0 -4.3209237222e-20 -2.5059425762e-20 -5.5511128758e-17 5.1100000000e-04 5.1099893000e-04 0.0000e+00 1.0000e+00
       50  1    1    2    0    0 +3.7185575478e-02 +1.2427184198e-02 +2.5549663437e+01 2.5549694008e+01 4.9935713700e-03 0.0000e+00 0.0000e+00
       11  1    1    2    0    0 -1.7066827338e-02 -7.5920975834e-04 +2.9699552460e-01 2.9748690012e-01 5.1099893000e-04 0.0000e+00 1.0000e+00
<vert_displacement>
87.271882161913979
</vert_displacement>
</event>
<event>
 4   1200 +8.5212000e+10 3.69869600e-02 7.81665300e-03            nan
       50 -1    0    0    0    0 +2.2939694363e-02 -1.5482077751e-04 +6.6780675667e+00 6.6781088352e+00 4.9935713700e-03 0.0000e+00 0.0000e+00
       11 -1    0    0    0    0 +3.1224522014e-18 -2.1073536111e-20 +9.0898973825e-16 5.1100000000e-04 5.1099893000e-04 0.0000e+00 1.0000e+00
       50  1    1    2    0    0 +1.4018884284e-02 -3.6659630938e-02 +4.8754486803e+00 4.8756092160e+00 4.9935713700e-03 0.0000e+00 0.0000e+00
       11  1    1    2    0    0 +8.9208100793e-03 +3.6504810161e-02 +1.8026188864e+00 1.8030106192e+00 5.1099893000e-04 0.0000e+00 1.0000e+00
<vert_displacement>
110.20294032641823
</vert_displacement>
</event>
<event>
 4   1200 +8.5212000e+10 1.55663100e-02 7.81665300e-03            nan
       50 -1    0    0    0    0 +1.0416616798e-02 +3.4217293935e-03 +8.6072300996e+00 8.6072385315e+00 4.9935713700e-03 0.0000e+00 0.0000e+00
       11 -1    0    0    0    0 +5.8782927290e-20 +1.9309462375e-20 +4.8572217919e-17 5.1100000000e-04 5.1099893000e-04 0.0000e+00 1.0000e+00
       50  1    1    2    0    0 +1.2933116314e-02 +1.7813987134e-02 +8.3889636351e+00 8.3889940047e+00 4.9935713700e-03 0.0000e+00 0.0000e+00
       11  1    1    2    0    0 -2.5164995158e-03 -1.4392257741e-02 +2.1826646453e-01 2.1875552682e-01 5.1099893000e-04 0.0000e+00 1.0000e+00
<vert_displacement>
456.38127399723703
</vert_displacement>
</event>
<event>
 4   1200 +8.5212000e+10 8.30141700e-03 7.81665300e-03            nan
       50 -1    0    0    0    0 +4.9940135458e-02 -1.1076078117e-03 +1.7690015316e+01 1.7690086547e+01 4.9935713700e-03 0.0000e+00 0.0000e+00
       11 -1    0    0    0    0 +3.1342238095e-18 -6.9513042826e-20 +1.1102185984e-15 5.1100000000e-04 5.1099893000e-04 0.0000e+00 1.0000e+00
       50  1    1    2    0    0 +4.9308131568e-02 +5.5070095140e-03 +1.7646879676e+01 1.7646950129e+01 4.9935713700e-03 0.0000e+00 0.0000e+00
       11  1    1    2    0    0 +6.3200389087e-04 -6.6146173256e-03 +4.3135639309e-02 4.3647417905e-02 5.1099893000e-04 0.0000e+00 1.0000e+00
<vert_displacement>
337.77201728046219
</vert_displacement>
</event>
<event>
 4   1200 +8.5212000e+10 7.26786400e-03 7.81665300e-03            nan
       50 -1    0    0    0    0 +9.7107008072e-02 -9.3372327634e-02 +3.5736545436e+01 3.5736799700e+01 4.9935713700e-03 0.0000e+00 0.0000e+00
       11 -1    0    0    0    0 -2.7151114357e-18 +2.6106897903e-18 -9.9919362270e-16 5.1100000000e-04 5.1099893000e-04 0.0000e+00 -1.0000e+00
       50  1    1    2    0    0 +1.0082516767e-01 -8.9626188498e-02 +3.5709237850e+01 3.5709493014e+01 4.9935713700e-03 0.0000e+00 0.0000e+00
       11  1    1    2    0    0 -3.7181595958e-03 -3.7461391354e-03 +2.7307585632e-02 2.7817685420e-02 5.1099893000e-04 0.0000e+00 -1.0000e+00
<vert_displacement>
2.3508011061420393
</vert_displacement>
</event>
<event>
 4   1200 +8.5212000e+10 4.49531600e-02 7.81665300e-03            nan
       50 -1    0    0    0    0 -4.8319729189e-02 +8.3443562775e-02 +3.3106685396e+01 3.3106826191e+01 4.9935713700e-03 0.0000e+00 0.0000e+00
       11 -1    0    0    0    0 -2.0254764149e-18 +3.4978045452e-18 +1.3877728947e-15 5.1100000000e-04 5.1099893000e-04 0.0000e+00 1.0000e+00
       50  1    1    2    0    0 -5.7908387841e-02 +1.2104251284e-01 +3.1022343586e+01 3.1022634176e+01 4.9935713700e-03 0.0000e+00 0.0000e+00
       11  1    1    2    0    0 +9.5886586521e-03 -3.7598950063e-02 +2.0843418095e+00 2.0847030157e+00 5.1099893000e-04 0.0000e+00 1.0000e+00
<vert_displacement>
200.21392386874871
</vert_displacement>
</event>
<event>
 4   1200 +8.5212000e+10 7.38520400e-03 7.81665300e-03            nan
       50 -1    0    0    0    0 +1.9493911577e-02 -1.1605759581e-02 +1.2272757048e+01 1.2272779034e+01 4.9935713700e-03 0.0000e+00 0.0000e+00
       11 -1    0    0    0    0 +8.1560161985e-19 -4.8557090640e-19 +5.1347727155e-16 5.1100000000e-04 5.1099893000e-04 0.0000e+00 -1.0000e+00
       50  1    1    2    0    0 +1.4495498191e-02 -1.3832245885e-02 +1.2243724606e+01 1.2243742018e+01 4.9935713700e-03 0.0000e+00 0.0000e+00
       11  1    1    2    0    0 +4.9984133863e-03 +2.2264863043e-03 +2.9032442669e-02 2.9548015583e-02 5.1099893000e-04 0.0000e+00 -1.0000e+00
<vert_displacement>
121.66882233221483
</vert_displacement>
</event>
<event>
 4   1200 +8.5212000e+10 1.49587600e-02 7.81665300e-03            nan
       50 -1    0    0    0    0 -1.3021740960e-02 +3.9725757359e-02 +2.3130884221e+01 2.3130922539e+01 4.9935713700e-03 0.0000e+00 0.0000e+00
       11 -1    0    0    0    0 -6.3282170907e-19 +1.9305653325e-18 +1.1240989765e-15 5.1100000000e-04 5.1099893000e-04 0.0000e+00 1.0000e+00
       50  1    1    2    0    0 -9.1494239616e-04 +3.1978216194e-02 +2.2934684861e+01 2.2934707717e+01 4.9935713700e-03 0.0000e+00 0.0000e+00
       11  1    1    2    0    0 -1.2106798564e-02 +7.7475411657e-03 +1.9619936073e-01 1.9672582250e-01 5.1099893000e-04 0.0000e+00 1.0000e+00
<vert_displacement>
453.71961191419172
</vert_displacement>
</event>
<event>
 4   1200 +8.5212000e+10 1.53029700e-02 7.81665300e-03            nan
       50 -1    0    0    0    0 +2.6972918384e-04 +8.3764074645e-03 +3.5382578014e+00 3.5382712505e+00 4.9935713700e-03 0.0000e+00 0.0000e+00
       11 -1    0    0    0    0 -1.2959659128e-20 -4.0246066039e-19 -1.7000242376e-16 5.1100000000e-04 5.1099893000e-04 0.0000e+00 1.0000e+00
       50  1    1    2    0    0 +1.4313363421e-02 +4.4604748420e-03 +3.3199302026e+00 3.3199678092e+00 4.9935713700e-03 0.0000e+00 0.0000e+00
       11  1    1    2    0    0 -1.4043634237e-02 +3.9159326225e-03 +2.1832759886e-01 2.1881444133e-01 5.1099893000e-04 0.0000e+00 1.0000e+00
<vert_displacement>
156.47127413309721
</vert_displacement>
</event>
<event>
 4   1200 +8.5212000e+10 7.72004400e-03 7.81665300e-03            nan
       50 -1    0    0    0    0 +1.4094301369e-02 +2.0996781158e-02 +1.1711044480e+01 1.1711072848e+01 4.9935713700e-03 0.0000e+00 0.0000e+00
       11 -1    0    0    0    0 +8.7685232264e-19 +1.3062780371e-18 +7.2858216125e-16 5.1100000000e-04 5.1099893000e-04 0.0000e+00 1.0000e+00
       50  1    1    2    0    0 +8.1864608655e-03 +2.1428503493e-02 +1.1677033094e+01 1.1677056693e+01 4.9935713700e-03 0.0000e+00 0.0000e+00
       11  1    1    2    0    0 +5.9078405032e-03 -4.3172233438e-04 +3.4011385899e-02 3.4527155317e-02 5.1099893000e-04 0.0000e+00 1.0000e+00
<vert_displacement>
236.97777208505505
</vert_displacement>
</event>
<event>
 4   1200 +8.5212000e+10 2.52776200e-02 7.81665300e-03            nan
       50 -1    0    0    0    0 +2.7609956515e-02 +5.4297261453e-03 +9.1643283634e+00 9.1643729234e+00 4.9935713700e-03 0.0000e+00 0.0000e+00
       11 -1    0    0    0    0 +6.6896478873e-19 +1.3155745470e-19 +2.2204355824e-16 5.1100000000e-04 5.1099893000e-04 0.0000e+00 1.0000e+00
       50  1    1    2    0    0 +2.0566994431e-03 -2.4904186099e-03 +8.5178304257e+00 8.5178325018e+00 4.9935713700e-03 0.0000e+00 0.0000e+00
       11  1    1    2    0    0 +2.5553257072e-02 +7.9201447551e-03 +6.4649793767e-01 6.4705142159e-01 5.1099893000e-04 0.0000e+00 1.0000e+00
<vert_displacement>
458.55362802197197
</vert_displacement>
</event>
<event>
 4   1200 +8.5212000e+10 1.01956700e-02 7.81665300e-03            nan
       50 -1    0    0    0    0 -8.0527447929e-02 +5.1570444276e-02 +2.6321555460e+01 2.6321729634e+01 4.9935713700e-03 0.0000e+00 0.0000e+00
       11 -1    0    0    0    0 -5.9015292319e-18 +3.7793881741e-18 +1.9289997755e-15 5.1100000000e-04 5.1099893000e-04 0.0000e+00 1.0000e+00
       50  1    1    2    0    0 -8.0677756082e-02 +4.2537896144e-02 +2.6244027100e+01 2.6244186056e+01 4.9935713700e-03 0.0000e+00 0.0000e+00
       11  1    1    2    0    0 +1.5030815318e-04 +9.0325481319e-03 +7.7528359240e-02 7.8054577859e-02 5.1099893000e-04 0.0000e+00 1.0000e+00
<vert_displacement>
417.06658456416665
</vert_displacement>
</event>
<event>
 4   1200 +8.5212000e+10 9.28578300e-03 7.81665300e-03            nan
       50 -1    0    0    0    0 +1.9403556208e-02 +2.3022551628e-02 +1.1291419042e+01 1.1291460289e+01 4.9935713700e-03 0.0000e+00 0.0000e+00
       11 -1    0    0    0    0 +2.2417096452e-18 +2.6598153188e-18 +1.3045074162e-15 5.1100000000e-04 5.1099893000e-04 0.0000e+00 1.0000e+00
       50  1    1    2    0    0 +1.8111377686e-02 +3.0637643604e-02 +1.1231109482e+01 1.1231166984e+01 4.9935713700e-03 0.0000e+00 0.0000e+00
       11  1    1    2    0    0 +1.2921785221e-03 -7.6150919762e-03 +6.0309560079e-02 6.0804305011e-02 5.1099893000e-04 0.0000e+00 1.0000e+00
<vert_displacement>
490.25298602816571
</vert_displacement>
</event>
<event>
 4   1200 +8.5212000e+10 6.75659800e-03 7.81665300e-03            nan
       50 -1    0    0    0    0 -1.6507367562e-02 +6.4740725074e-03 +9.5899245229e+00 9.5899422155e+00 4.9935713700e-03 0.0000e+00 0.0000e+00
       11 -1    0    0    0    0 +4.6581851265e-19 -1.8269071764e-19 -2.7061639967e-16 5.1100000000e-04 5.1099893000e-04 0.0000e+00 1.0000e+00
       50  1    1    2    0    0 -1.2504812584e-02 +4.2301041338e-03 +9.5696187522e+00 9.5696291601e+00 4.9935713700e-03 0.0000e+00 0.0000e+00
       11  1    1    2    0    0 -4.0025549782e-03 +2.2439683736e-03 +2.0305770687e-02 2.0824055406e-02 5.1099893000e-04 0.0000e+00 1.0000e+00
<vert_displacement>
36.111777908628476
</vert_displacement>
</event>
<event>
 4   1200 +8.5212000e+10 1.50262200e-02 7.81665300e-03            nan
       50 -1    0    0    0    0 +2.6915218006e-03 +1.0616857151e-02 +5.1010314481e+00 5.1010456509e+00 4.9935713700e-03 0.0000e+00 0.0000e+00
       11 -1    0    0    0    0 +3.2218982359e-19 +1.2708956441e-18 +6.1062125598e-16 5.1100000000e-04 5.1099893000e-04 0.0000e+00 1.0000e+00
       50  1    1    2    0    0 +1.4787714847e-02 +1.7395253572e-02 +4.8962004889e+00 4.8962562673e+00 4.9935713700e-03 0.0000e+00 0.0000e+00
       11  1    1    2    0    0 -1.2096193046e-02 -6.7783964219e-03 +2.0483095916e-01 2.0530038358e-01 5.1099893000e-04 0.0000e+00 1.0000e+00
<vert_displacement>
189.23522939857233
</vert_displacement>
</event>
<event>
 4   1200 +8.5212000e+10 7.11020500e-02 7.81665300e-03            nan
       50 -1    0    0    0    0 -6.0160389514e-02 -1.0543178746e-02 +2.1620622380e+01 2.1620709226e+01 4.9935713700e-03 0.0000e+00 0.0000e+00
       11 -1    0    0    0    0 +1.4287711816e-18 +2.5039382351e-19 -5.1347610003e-16 5.1100000000e-04 5.1099893000e-04 0.0000e+00 1.0000e+00
       50  1    1    2    0    0 -1.0776602611e-01 -2.4380060049e-02 +1.4030941898e+01 1.4031377815e+01 4.9935713700e-03 0.0000e+00 0.0000e+00
       11  1    1    2    0    0 +4.7605636592e-02 +1.3836881303e-02 +7.5896804815e+00 7.5898424113e+00 5.1099893000e-04 0.0000e+00 1.0000e+00
<vert_displacement>
175.45106979310003
</vert_displacement>
</event>
<event>
 4   1200 +8.5212000e+10 4.90229200e-02 7.81665300e-03            nan
       50 -1    0    0    0    0 -3.9012541105e-02 -1.8616915984e-03 +1.3085455925e+01 1.3085515165e+01 4.9935713700e-03 0.0000e+00 0.0000e+00
       11 -1    0    0    0    0 +2.8341593198e-18 +1.3524703710e-19 -9.5062423039e-16 5.1100000000e-04 5.1099893000e-04 0.0000e+00 1.0000e+00
       50  1    1    2    0    0 -7.1743522371e-02 +2.3748267181e-02 +1.0055146958e+01 1.0055432183e+01 4.9935713700e-03 0.0000e+00 0.0000e+00
       11  1    1    2    0    0 +3.2730981266e-02 -2.5609958780e-02 +3.0303089669e+00 3.0305939819e+00 5.1099893000e-04 0.0000e+00 1.0000e+00
<vert_displacement>
64.179028345126156
</vert_displacement>
</event>
<event>
 4   1200 +8.5212000e+10 5.55407900e-03 7.81665300e-03            nan
       50 -1    0    0    0    0 -2.1953634388e-02 -2.8888423720e-02 +1.6294907342e+01 1.6294948504e+01 4.9935713700e-03 0.0000e+00 0.0000e+00
       11 -1    0    0    0    0 -3.8142035461e-18 -5.0190472450e-18 +2.8310616944e-15 5.1100000000e-04 5.1099893000e-04 0.0000e+00 1.0000e+00
       50  1    1    2    0    0 -2.4376175591e-02 -2.8952237495e-02 +1.6289116937e+01 1.6289161671e+01 4.9935713700e-03 0.0000e+00 0.0000e+00
       11  1    1    2    0    0 +2.4225412030e-03 +6.3813774795e-05 +5.7904056219e-03 6.2978325836e-03 5.1099893000e-04 0.0000e+00 1.0000e+00
<vert_displacement>
189.15400607772645
</vert_displacement>
</event>
<event>
 4   1200 +8.5212000e+10 2.40714500e-02 7.81665300e-03            nan
       50 -1    0    0    0    0 +8.4826488516e-03 +8.1381689173e-03 +9.3428704727e+00 9.3428792024e+00 4.9935713700e-03 0.0000e+00 0.0000e+00
       11 -1    0    0    0    0 -6.3000074750e-19 -6.0441644948e-19 -6.9388884115e-16 5.1100000000e-04 5.1099893000e-04 0.0000e+00 1.0000e+00
       50  1    1    2    0    0 +2.8678938695e-02 -3.5513066690e-03 +8.7643564408e+00 8.7644055047e+00 4.9935713700e-03 0.0000e+00 0.0000e+00
       11  1    1    2    0    0 -2.0196289844e-02 +1.1689475586e-02 +5.7851403185e-01 5.7898469766e-01 5.1099893000e-04 0.0000e+00 1.0000e+00
<vert_displacement>
457.74490110514154
</vert_displacement>
</event>
<event>
 4   1200 +8.5212000e+10 1.80327900e-02 7.81665300e-03            nan
       50 -1    0    0    0    0 -2.7827873443e-02 +1.7714187459e-02 +1.3756004325e+01 1.3756044785e+01 4.9935713700e-03 0.0000e+00 0.0000e+00
       11 -1    0    0    0    0 -3.2285279484e-18 +2.0551606076e-18 +1.5959410091e-15 5.1100000000e-04 5.1099893000e-04 0.0000e+00 1.0000e+00
       50  1    1    2    0    0 -4.4456630833e-02 +1.5552014897e-02 +1.3455609113e+01 1.3455692468e+01 4.9935713700e-03 0.0000e+00 0.0000e+00
       11  1    1    2    0    0 +1.6628757389e-02 +2.1621725616e-03 +3.0039521275e-01 3.0086331701e-01 5.1099893000e-04 0.0000e+00 1.0000e+00
<vert_displacement>
417.56764908867382
</vert_displacement>
</event>
<event>
 4   1200 +8.5212000e+10 1.05576700e-02 7.81665300e-03            nan
       50 -1    0    0    0    0 -2.2727556152e-02 -1.3442859930e-02 +2.6138983769e+01 2.6138997583e+01 4.9935713700e-03 0.0000e+00 0.0000e+00
       11 -1    0    0    0    0 -7.6019430373e-19 -4.4963855666e-19 +8.7430018578e-16 5.1100000000e-04 5.1099893000e-04 0.0000e+00 1.0000e+00
       50  1    1    2    0    0 -2.7277312329e-02 -5.3275731671e-03 +2.6054040084e+01 2.6054055386e+01 4.9935713700e-03 0.0000e+00 0.0000e+00
       11  1    1    2    0    0 +4.5497561768e-03 -8.1152867629e-03 +8.4943684796e-02 8.5453196939e-02 5.1099893000e-04 0.0000e+00 1.0000e+00
<vert_displacement>
338.50821243640740
</vert_displacement>
</event>
<event>
 4   1200 +8.5212000e+10 4.35167700e-02 7.81665300e-03            nan
       50 -1    0    0    0    0 +6.4161743346e-02 -6.2072880388e-03 +2.1652771712e+01 2.1652868240e+01 4.9935713700e-03 0.0000e+00 0.0000e+00
       11 -1    0    0    0    0 +6.4151316788e-18 -6.2062793279e-19 +2.1649253044e-15 5.1100000000e-04 5.1099893000e-04 0.0000e+00 1.0000e+00
       50  1    1    2    0    0 +1.0077854689e-01 +1.7629353091e-03 +1.9636043467e+01 1.9636302793e+01 4.9935713700e-03 0.0000e+00 0.0000e+00
       11  1    1    2    0    0 -3.6616803539e-02 -7.9702233479e-03 +2.0167282455e+00 2.0170764468e+00 5.1099893000e-04 0.0000e+00 1.0000e+00
<vert_displacement>
196.85497196910043
</vert_displacement>
</event>
<event>
 4   1200 +8.5212000e+10 1.33434600e-02 7.81665300e-03            nan
       50 -1    0    0    0    0 +4.0893014857e-03 +1.2711274963e-02 +5.3146545712e+00 5.3146736913e+00 4.9935713700e-03 0.0000e+00 0.0000e+00
       11 -1    0    0    0    0 -1.4415401015e-19 -4.4809150571e-19 -1.8734954409e-16 5.1100000000e-04 5.1099893000e-04 0.0000e+00 1.0000e+00
       50  1    1    2    0    0 +1.6220750479e-02 +1.4087012163e-02 +5.1603088523e+00 5.1603559900e+00 4.9935713700e-03 0.0000e+00 0.0000e+00
       11  1    1    2    0    0 -1.2131448993e-02 -1.3757371998e-03 +1.5434571883e-01 1.5482870131e-01 5.1099893000e-04 0.0000e+00 1.0000e+00
<vert_displacement>
298.27504124684663
</vert_displacement>
</event>
<event>
 4   1200 +8.5212000e+10 2.22052400e-02 7.81665300e-03            nan
       50 -1    0    0    0    0 +1.7024411137e-02 -1.2482225208e-03 +6.4644280284e+00 6.4644524949e+00 4.9935713700e-03 0.0000e+00 0.0000e+00
       11 -1    0    0    0    0 -2.5948907128e-18 +1.9025627380e-19 -9.8531949910e-16 5.1100000000e-04 5.1099893000e-04 0.0000e+00 1.0000e+00
       50  1    1    2    0    0 +8.9532564795e-03 +1.9399616915e-02 +5.9681030988e+00 5.9681434333e+00 4.9935713700e-03 0.0000e+00 0.0000e+00
       11  1    1    2    0    0 +8.0711546576e-03 -2.0647839436e-02 +4.9632492953e-01 4.9682006160e-01 5.1099893000e-04 0.0000e+00 1.0000e+00
<vert_displacement>
136.68434292114085
</vert_displacement>
</event>
<event>
 4   1200 +8.5212000e+10 2.73235000e-02 7.81665300e-03            nan
       50 -1    0    0    0    0 +6.1520607434e-03 +4.2892778989e-02 +1.8895201520e+01 1.8895251865e+01 4.9935713700e-03 0.0000e+00 0.0000e+00
       11 -1    0    0    0    0 -1.7170058872e-19 -1.1971135708e-18 -5.2735455000e-16 5.1100000000e-04 5.1099893000e-04 0.0000e+00 1.0000e+00
       50  1    1    2    0    0 +3.2399050312e-02 +3.6739565185e-02 +1.8160476608e+01 1.8160543358e+01 4.9935713700e-03 0.0000e+00 0.0000e+00
       11  1    1    2    0    0 -2.6246989569e-02 +6.1532138037e-03 +7.3472491188e-01 7.3521950719e-01 5.1099893000e-04 0.0000e+00 1.0000e+00
<vert_displacement>
332.89534962435351
</vert_displacement>
</event>
<event>
 4   1200 +8.5212000e+10 7.36361900e-03 7.81665300e-03            nan
       50 -1    0    0    0    0 +7.2889536306e-02 -3.1001052525e-02 +3.2688624937e+01 3.2688721284e+01 4.9935713700e-03 0.0000e+00 0.0000e+00
       11 -1    0    0    0    0 -3.3729818251e-18 +1.4345815878e-18 -1.5126744302e-15 5.1100000000e-04 5.1099893000e-04 0.0000e+00 1.0000e+00
       50  1    1    2    0    0 +6.8772483429e-02 -3.4559865743e-02 +3.2659948345e+01 3.2660039419e+01 4.9935713700e-03 0.0000e+00 0.0000e+00
       11  1    1    2    0    0 +4.1170528769e-03 +3.5588132184e-03 +2.8676592209e-02 2.9192864480e-02 5.1099893000e-04 0.0000e+00 1.0000e+00
<vert_displacement>
24.863677449181921
</vert_displacement>
</event>
<event>
 4   1200 +8.5212000e+10 1.59814700e-02 7.81665300e-03            nan
       50 -1    0    0    0    0 +3.3527489401e-03 -7.9072162815e-03 +3.4321744476e+00 3.4321888263e+00 4.9935713700e-03 0.0000e+00 0.0000e+00
       11 -1    0    0    0    0 -1.6945741466e-19 +3.9965307636e-19 -1.7347180446e-16 5.1100000000e-04 5.1099893000e-04 0.0000e+00 1.0000e+00
       50  1    1    2    0    0 -1.0426220102e-02 -1.4210166552e-02 +3.1893244115e+00 3.1893770195e+00 4.9935713700e-03 0.0000e+00 0.0000e+00
       11  1    1    2    0    0 +1.3778969042e-02 +6.3029502704e-03 +2.4285003613e-01 2.4332280686e-01 5.1099893000e-04 0.0000e+00 1.0000e+00
<vert_displacement>
203.68724760387596
</vert_displacement>
</event>
<event>
 4   1200 +8.5212000e+10 9.92620400e-03 7.81665300e-03            nan
       50 -1    0    0    0    0 +2.1220136858e-02 -2.8500710461e-02 +1.7134432761e+01 1.7134470332e+01 4.9935713700e-03 0.0000e+00 0.0000e+00
       11 -1    0    0    0    0 +1.9077468129e-18 -2.5622897681e-18 +1.5404311343e-15 5.1100000000e-04 5.1099893000e-04 0.0000e+00 1.0000e+00
       50  1    1    2    0    0 +2.7218456895e-02 -2.2336294886e-02 +1.7062118075e+01 1.7062155136e+01 4.9935713700e-03 0.0000e+00 0.0000e+00
       11  1    1    2    0    0 -5.9983200371e-03 -6.1644155751e-03 +7.2314686066e-02 7.2826195860e-02 5.1099893000e-04 0.0000e+00 1.0000e+00
<vert_displacement>
286.51033854109704
</vert_displacement>
</event>
<event>
 4   1200 +8.5212000e+10 7.93348900e-03 7.81665300e-03            nan
       50 -1    0    0    0    0 -2.3259888756e-02 +2.6408932532e-02 +1.6676557492e+01 1.6676595371e+01 4.9935713700e-03 0.0000e+00 0.0000e+00
       11 -1    0    0    0    0 -1.0065233346e-18 +1.1427916580e-18 +7.2164335922e-16 5.1100000000e-04 5.1099893000e-04 0.0000e+00 1.0000e+00
       50  1    1    2    0    0 -2.7471498869e-02 +2.1897241894e-02 +1.6639287726e+01 1.6639325562e+01 4.9935713700e-03 0.0000e+00 0.0000e+00
       11  1    1    2    0    0 +4.2116101131e-03 +4.5116906384e-03 +3.7269765297e-02 3.7780809115e-02 5.1099893000e-04 0.0000e+00 1.0000e+00
<vert_displacement>
154.89433921390929
</vert_displacement>
</event>
<event>
 4   1200 +8.5212000e+10 6.85086400e-03 7.81665300e-03            nan
       50 -1    0    0    0    0 +7.1925858657e-03 -2.0915334840e-02 +8.0148552477e+00 8.0148873206e+00 4.9935713700e-03 0.0000e+00 0.0000e+00
       11 -1    0    0    0    0 -3.8607319982e-19 +1.1226630308e-18 -4.3020978398e-16 5.1100000000e-04 5.1099893000e-04 0.0000e+00 1.0000e+00
       50  1    1    2    0    0 +2.8104431391e-03 -2.2580867160e-02 +7.9932700398e+00 7.9933039889e+00 4.9935713700e-03 0.0000e+00 0.0000e+00
       11  1    1    2    0    0 +4.3821427266e-03 +1.6655323203e-03 +2.1585207851e-02 2.2094331641e-02 5.1099893000e-04 0.0000e+00 1.0000e+00
<vert_displacement>
35.414549194693315
</vert_displacement>
</event>
<event>
 4   1200 +8.5212000e+10 1.78770700e-02 7.81665300e-03            nan
       50 -1    0    0    0    0 -4.0342847686e-02 +2.3887523184e-02 +1.8021922493e+01 1.8021984170e+01 4.9935713700e-03 0.0000e+00 0.0000e+00
       11 -1    0    0    0    0 -1.2426367618e-18 +7.3578133816e-19 +5.5510963384e-16 5.1100000000e-04 5.1099893000e-04 0.0000e+00 1.0000e+00
       50  1    1    2    0    0 -5.6729471135e-02 +2.5547913124e-02 +1.7728790441e+01 1.7728900315e+01 4.9935713700e-03 0.0000e+00 0.0000e+00
       11  1    1    2    0    0 +1.6386623449e-02 -1.6603899394e-03 +2.9313205156e-01 2.9359485536e-01 5.1099893000e-04 0.0000e+00 1.0000e+00
<vert_displacement>
475.10570128836781
</vert_displacement>
</event>
<event>
 4   1200 +8.5212000e+10 1.51262000e-02 7.81665300e-03            nan
       50 -1    0    0    0    0 -1.1060138135e-02 +5.7074741825e-03 +3.2940236502e+00 3.2940509477e+00 4.9935713700e-03 0.0000e+00 0.0000e+00
       11 -1    0    0    0    0 +2.4463032057e-19 -1.2623904167e-19 -7.2857865937e-17 5.1100000000e-04 5.1099893000e-04 0.0000e+00 1.0000e+00
       50  1    1    2    0    0 -2.4357395117e-02 +8.0715154460e-03 +3.0805330682e+00 3.0806439834e+00 4.9935713700e-03 0.0000e+00 0.0000e+00
       11  1    1    2    0    0 +1.3297256981e-02 -2.3640412635e-03 +2.1349058199e-01 2.1391796430e-01 5.1099893000e-04 0.0000e+00 1.0000e+00
<vert_displacement>
157.03709755894340
</vert_displacement>
</event>
<event>
 4   1200 +8.5212000e+10 8.15797500e-03 7.81665300e-03            nan
       50 -1    0    0    0    0 -1.7217004587e-02 -6.5104947475e-03 +5.3691966725e+00 5.3692305459e+00 4.9935713700e-03 0.0000e+00 0.0000e+00
       11 -1    0    0    0    0 +2.2250305480e-19 +8.4138037035e-20 -6.9388531287e-17 5.1100000000e-04 5.1099893000e-04 0.0000e+00 1.0000e+00
       50  1    1    2    0    0 -1.4385435505e-02 -6.0183078266e-04 +5.3281727388e+00 5.3281945322e+00 4.9935713700e-03 0.0000e+00 0.0000e+00
       11  1    1    2    0    0 -2.8315690819e-03 -5.9086639648e-03 +4.1023933697e-02 4.1547013722e-02 5.1099893000e-04 0.0000e+00 1.0000e+00
<vert_displacement>
328.90522040426924
</vert_displacement>
</event>
<event>
 4   1200 +8.5212000e+10 1.03087400e-02 7.81665300e-03            nan
       50 -1    0    0    0    0 -3.0370495389e-02 -2.8729522283e-02 +2.2280300085e+01 2.2280339866e+01 4.9935713700e-03 0.0000e+00 0.0000e+00
       11 -1    0    0    0    0 -2.8753711195e-18 -2.7200095880e-18 +2.1094200334e-15 5.1100000000e-04 5.1099893000e-04 0.0000e+00 1.0000e+00
       50  1    1    2    0    0 -2.6540012357e-02 -3.6841390763e-02 +2.2200422749e+01 2.2200469744e+01 4.9935713700e-03 0.0000e+00 0.0000e+00
       11  1    1    2    0    0 -3.8304830319e-03 +8.1118684794e-03 +7.9877335364e-02 8.0381122381e-02 5.1099893000e-04 0.0000e+00 1.0000e+00
<vert_displacement>
24.692036838047759
</vert_displacement>
</event>
<event>
 4   1200 +8.5212000e+10 6.04351000e-02 7.81665300e-03            nan
       50 -1    0    0    0    0 +4.2059214080e-02 +6.3199085822e-02 +2.7815252761e+01 2.7815356805e+01 4.9935713700e-03 0.0000e+00 0.0000e+00
       11 -1    0    0    0    0 -4.1758976349e-18 -6.2747942105e-18 -2.7616694881e-15 5.1100000000e-04 5.1099893000e-04 0.0000e+00 1.0000e+00
       50  1    1    2    0    0 +4.2568336493e-02 +1.1354800436e-01 +2.3637772577e+01 2.3638084156e+01 4.9935713700e-03 0.0000e+00 0.0000e+00
       11  1    1    2    0    0 -5.0912241259e-04 -5.0348918539e-02 +4.1774801845e+00 4.1777836499e+00 5.1099893000e-04 0.0000e+00 1.0000e+00
<vert_displacement>
434.44965164126342
</vert_displacement>
</event>
<event>
 4   1200 +8.5212000e+10 5.72960400e-02 7.81665300e-03            nan
       50 -1    0    0    0    0 -5.5592912928e-02 -2.3831896493e-02 +2.9370334235e+01 2.9370396942e+01 4.9935713700e-03 0.0000e+00 0.0000e+00
       11 -1    0    0    0    0 -1.9175766102e-18 -8.2203800600e-19 +1.0130763616e-15 5.1100000000e-04 5.1099893000e-04 0.0000e+00 1.0000e+00
       50  1    1    2    0    0 -8.2543757195e-02 +2.5086397164e-02 +2.5731224411e+01 2.5731369521e+01 4.9935713700e-03 0.0000e+00 0.0000e+00
       11  1    1    2    0    0 +2.6950844267e-02 -4.8918293657e-02 +3.6391098245e+00 3.6395384218e+00 5.1099893000e-04 0.0000e+00 1.0000e+00
<vert_displacement>
191.05457051256874
</vert_displacement>
</event>
<event>
 4   1200 +8.5212000e+10 2.07133400e-02 7.81665300e-03            nan
       50 -1    0    0    0    0 -2.1493907979e-02 +1.7104747551e-03 +6.4280050484e+00 6.4280431511e+00 4.9935713700e-03 0.0000e+00 0.0000e+00
       11 -1    0    0    0    0 +3.2482916490e-19 -2.5849747138e-20 -9.7143968136e-17 5.1100000000e-04 5.1099893000e-04 0.0000e+00 1.0000e+00
       50  1    1    2    0    0 -3.8423253363e-02 +9.8170050615e-03 +6.0045067183e+00 6.0046397549e+00 4.9935713700e-03 0.0000e+00 0.0000e+00
       11  1    1    2    0    0 +1.6929345383e-02 -8.1065303064e-03 +4.2349833013e-01 4.2391439621e-01 5.1099893000e-04 0.0000e+00 1.0000e+00
<vert_displacement>
485.03674748772238
</vert_displacement>
</event>
<event>
 4   1200 +8.5212000e+10 1.02752400e-02 7.81665300e-03            nan
       50 -1    0    0    0    0 -7.6122317259e-03 -3.1027929596e-03 +5.0758285682e+00 5.0758376809e+00 4.9935713700e-03 0.0000e+00 0.0000e+00
       11 -1    0    0    0    0 +6.2437568574e-19 +2.5449940985e-19 -4.1633308826e-16 5.1100000000e-04 5.1099893000e-04 0.0000e+00 1.0000e+00
       50  1    1    2    0    0 -1.5518738689e-02 +9.7309024785e-04 +4.9956295013e+00 4.9956561960e+00 4.9935713700e-03 0.0000e+00 0.0000e+00
       11  1    1    2    0    0 +7.9065069628e-03 -4.0758832075e-03 +8.0199066890e-02 8.0692484943e-02 5.1099893000e-04 0.0000e+00 1.0000e+00
<vert_displacement>
295.76185388467252
</vert_displacement>
</event>
<event>
 4   1200 +8.5212000e+10 2.53804100e-02 7.81665300e-03            nan
       50 -1    0    0    0    0 +5.9433462193e-02 +5.1115191423e-02 +2.2568690395e+01 2.2568827089e+01 4.9935713700e-03 0.0000e+00 0.0000e+00
       11 -1    0    0    0    0 +9.8674755387e-19 +8.4864297385e-19 +3.7469801051e-16 5.1100000000e-04 5.1099893000e-04 0.0000e+00 1.0000e+00
       50  1    1    2    0    0 +3.4120861711e-02 +4.2030678763e-02 +2.1945636897e+01 2.1945704239e+01 4.9935713700e-03 0.0000e+00 0.0000e+00
       11  1    1    2    0    0 +2.5312600482e-02 +9.0845126602e-03 +6.2305349854e-01 6.2363385033e-01 5.1099893000e-04 0.0000e+00 1.0000e+00
<vert_displacement>
375.71114443912711
</vert_displacement>
</event>
<event>
 4   1200 +8.5212000e+10 1.81887200e-02 7.81665300e-03            nan
       50 -1    0    0    0    0 +3.2927118587e-02 -4.3561680049e-02 +1.8868749733e+01 1.8868829408e+01 4.9935713700e-03 0.0000e+00 0.0000e+00
       11 -1    0    0    0    0 -6.2965459309e-19 +8.3301585752e-19 -3.6082097203e-16 5.1100000000e-04 5.1099893000e-04 0.0000e+00 1.0000e+00
       50  1    1    2    0    0 +2.7976713294e-02 -2.5937162092e-02 +1.8564569311e+01 1.8564609182e+01 4.9935713700e-03 0.0000e+00 0.0000e+00
       11  1    1    2    0    0 +4.9504052929e-03 -1.7624517957e-02 +3.0418042170e-01 3.0473122618e-01 5.1099893000e-04 0.0000e+00 1.0000e+00
<vert_displacement>
493.36654912339452
</vert_displacement>
</event>
<event>
 4   1200 +8.5212000e+10 1.02968500e-02 7.81665300e-03            nan
       50 -1    0    0    0    0 +9.9105108688e-03 -7.0804691037e-03 +7.9654261116e+00 7.9654369890e+00 4.9935713700e-03 0.0000e+00 0.0000e+00
       11 -1    0    0    0    0 +1.0273625477e-18 -7.3398928409e-19 +8.2572740923e-16 5.1100000000e-04 5.1099893000e-04 0.0000e+00 1.0000e+00
       50  1    1    2    0    0 +1.8712622047e-02 -5.6503768128e-03 +7.8852583532e+00 7.8852841624e+00 4.9935713700e-03 0.0000e+00 0.0000e+00
       11  1    1    2    0    0 -8.8021111778e-03 -1.4300922909e-03 +8.0167758396e-02 8.0663826659e-02 5.1099893000e-04 0.0000e+00 1.0000e+00
<vert_displacement>
44.964150006719308
</vert_displacement>
</event>
<event>
 4   1200 +8.5212000e+10 1.49124200e-02 7.81665300e-03            nan
       50 -1    0    0    0    0 -3.7852684573e-02 -5.2875831751e-03 +1.5016342608e+01 1.5016392078e+01 4.9935713700e-03 0.0000e+00 0.0000e+00
       11 -1    0    0    0    0 -1.0144936928e-18 -1.4171306056e-19 +4.0245454283e-16 5.1100000000e-04 5.1099893000e-04 0.0000e+00 1.0000e+00
       50  1    1    2    0    0 -3.0152143034e-02 -1.7281080185e-02 +1.4820600390e+01 1.4820641978e+01 4.9935713700e-03 0.0000e+00 0.0000e+00
       11  1    1    2    0    0 -7.7005415388e-03 +1.1993497010e-02 +1.9574221726e-01 1.9626109918e-01 5.1099893000e-04 0.0000e+00 1.0000e+00
<vert_displacement>
140.58030483659380
</vert_displacement>
</event>
<event>
 4   1200 +8.5212000e+10 1.37420800e-02 7.81665300e-03            nan
       50 -1    0    0    0    0 -1.7932631547e-02 -1.4385402973e-02 +5.6909306822e+00 5.6909793080e+00 4.9935713700e-03 0.0000e+00 0.0000e+00
       11 -1    0    0    0    0 +1.2681640181e-18 +1.0173102809e-18 -4.0245256262e-16 5.1100000000e-04 5.1099893000e-04 0.0000e+00 1.0000e+00
       50  1    1    2    0    0 -1.6507345499e-02 -2.6738449288e-02 +5.5256908689e+00 5.5257824741e+00 4.9935713700e-03 0.0000e+00 0.0000e+00
       11  1    1    2    0    0 -1.4252860472e-03 +1.2353046315e-02 +1.6523981327e-01 1.6570783386e-01 5.1099893000e-04 0.0000e+00 1.0000e+00
<vert_displacement>
373.95800303997652
</vert_displacement>
</event>
<event>
 4   1200 +8.5212000e+10 4.42153500e-02 7.81665300e-03            nan
       50 -1    0    0    0    0 +2.2780405772e-02 -5.2037134545e-03 +7.5894158451e+00 7.5894534607e+00 4.9935713700e-03 0.0000e+00 0.0000e+00
       11 -1    0    0    0    0 +1.2496619455e-19 -2.8545947534e-20 +4.1633166088e-17 5.1100000000e-04 5.1099893000e-04 0.0000e+00 1.0000e+00
       50  1    1    2    0    0 +3.5524763602e-02 -3.9719364378e-02 +3.9496906205e+00 3.9500532364e+00 4.9935713700e-03 0.0000e+00 0.0000e+00
       11  1    1    2    0    0 -1.2744357830e-02 +3.4515650923e-02 +3.6397252246e+00 3.6399112243e+00 5.1099893000e-04 0.0000e+00 1.0000e+00
<vert_displacement>
62.657243465225648
</vert_displacement>
</event>
<event>
 4   1200 +8.5212000e+10 1.34312900e-02 7.81665300e-03            nan
       50 -1    0    0    0    0 -4.3787595073e-02 -2.7338041400e-02 +1.2936089838e+01 1.2936193797e+01 4.9935713700e-03 0.0000e+00 0.0000e+00
       11 -1    0    0    0    0 -3.2882353613e-19 -2.0529539082e-19 +9.7143741211e-17 5.1100000000e-04 5.1099893000e-04 0.0000e+00 1.0000e+00
       50  1    1    2    0    0 -3.1940050200e-02 -2.1799831034e-02 +1.2782181423e+01 1.2782240893e+01 4.9935713700e-03 0.0000e+00 0.0000e+00
       11  1    1    2    0    0 -1.1847544873e-02 -5.5382103658e-03 +1.5390841492e-01 1.5446390322e-01 5.1099893000e-04 0.0000e+00 1.0000e+00
<vert_displacement>
153.67628798275967
</vert_displacement>
</event>
<event>
 4   1200 +8.5212000e+10 1.00703600e-02 7.81665300e-03            nan
       50 -1    0    0    0    0 +2.4202623682e-02 +2.1667175426e-02 +1.0371034157e+01 1.0371086233e+01 4.9935713700e-03 0.0000e+00 0.0000e+00
       11 -1    0    0    0    0 +1.0363548264e-18 +9.2778709131e-19 +4.4408703143e-16 5.1100000000e-04 5.1099893000e-04 0.0000e+00 1.0000e+00
       50  1    1    2    0    0 +3.2714901639e-02 +2.2505264342e-02 +1.0295629099e+01 1.0295706884e+01 4.9935713700e-03 0.0000e+00 0.0000e+00
       11  1    1    2    0    0 -8.5122779568e-03 -8.3808891607e-04 +7.5405057952e-02 7.5890349542e-02 5.1099893000e-04 0.0000e+00 1.0000e+00
<vert_displacement>
211.17267782469901
</vert_displacement>
</event>
<event>
 4   1200 +8.5212000e+10 1.23599800e-02 7.81665300e-03            nan
       50 -1    0    0    0    0 +3.6462841348e-03 +1.6569057357e-03 +2.0701314006e+00 2.0701412976e+00 4.9935713700e-03 0.0000e+00 0.0000e+00
       11 -1    0    0    0    0 +2.7499484159e-19 +1.2496023719e-19 +1.5612482064e-16 5.1100000000e-04 5.1099893000e-04 0.0000e+00 1.0000e+00
       50  1    1    2    0    0 +3.2284167886e-03 -9.7551090823e-03 +1.9362702825e+00 1.9363039863e+00 4.9935713700e-03 0.0000e+00 0.0000e+00
       11  1    1    2    0    0 +4.1786734615e-04 +1.1412014818e-02 +1.3386111807e-01 1.3434831129e-01 5.1099893000e-04 0.0000e+00 1.0000e+00
<vert_displacement>
255.72073634828806
</vert_displacement>
</event>
<event>
 4   1200 +8.5212000e+10 7.28723600e-03 7.81665300e-03            nan
       50 -1    0    0    0    0 +6.2163514491e-03 -1.3990669411e-03 +1.4509216824e+01 1.4509219082e+01 4.9935713700e-03 0.0000e+00 0.0000e+00
       11 -1    0    0    0    0 -9.8106037340e-20 +2.2079979662e-20 -2.2898347675e-16 5.1100000000e-04 5.1099893000e-04 0.0000e+00 1.0000e+00
       50  1    1    2    0    0 +3.1373712890e-03 +2.9349530607e-03 +1.4481603238e+01 1.4481604736e+01 4.9935713700e-03 0.0000e+00 0.0000e+00
       11  1    1    2    0    0 +3.0789801601e-03 -4.3340200018e-03 +2.7613585465e-02 2.8125345693e-02 5.1099893000e-04 0.0000e+00 1.0000e+00
<vert_displacement>
314.93097600365633
</vert_displacement>
</event>
<event>
 4   1200 +8.5212000e+10 1.30701900e-02 7.81665300e-03            nan
       50 -1    0    0    0    0 +1.4620536220e-02 +1.6850428930e-02 +7.8899218243e+00 7.8899549445e+00 4.9935713700e-03 0.0000e+00 0.0000e+00
       11 -1    0    0    0    0 -1.3243913533e-18 -1.5263846714e-18 -7.1470321507e-16 5.1100000000e-04 5.1099893000e-04 0.0000e+00 1.0000e+00
       50  1    1    2    0    0 +1.1769921797e-02 +2.8339432395e-02 +7.7444496643e+00 7.7445120694e+00 4.9935713700e-03 0.0000e+00 0.0000e+00
       11  1    1    2    0    0 +2.8506144226e-03 -1.1489003465e-02 +1.4547216004e-01 1.4595387515e-01 5.1099893000e-04 0.0000e+00 1.0000e+00
<vert_displacement>
182.86684240555655
</vert_displacement>
</event>
<event>
 4   1200 +8.5212000e+10 1.56806300e-02 7.81665300e-03            nan
       50 -1    0    0    0    0 +5.6023402649e-03 +3.2365237101e-02 +2.0780079739e+01 2.0780106298e+01 4.9935713700e-03 0.0000e+00 0.0000e+00
       11 -1    0    0    0    0 +1.6088310107e-19 +9.2943653281e-19 +5.9674413024e-16 5.1100000000e-04 5.1099893000e-04 0.0000e+00 1.0000e+00
       50  1    1    2    0    0 -6.1421788508e-04 +1.8496101851e-02 +2.0561607207e+01 2.0561616141e+01 4.9935713700e-03 0.0000e+00 0.0000e+00
       11  1    1    2    0    0 +6.2165581500e-03 +1.3869135250e-02 +2.1847253198e-01 2.1900115721e-01 5.1099893000e-04 0.0000e+00 1.0000e+00
<vert_displacement>
435.71255398790890
</vert_displacement>
</event>
<event>
 4   1200 +8.5212000e+10 6.02552600e-03 7.81665300e-03            nan
       50 -1    0    0    0    0 +2.2166752324e-02 -2.2241813706e-02 +1.2634375620e+01 1.2634415630e+01 4.9935713700e-03 0.0000e+00 0.0000e+00
       11 -1    0    0    0    0 +6.4522778353e-19 -6.4741266333e-19 +3.6776024103e-16 5.1100000000e-04 5.1099893000e-04 0.0000e+00 1.0000e+00
       50  1    1    2    0    0 +2.0813416130e-02 -1.9125091271e-02 +1.2623246732e+01 1.2623279367e+01 4.9935713700e-03 0.0000e+00 0.0000e+00
       11  1    1    2    0    0 +1.3533361931e-03 -3.1167224348e-03 +1.1128887333e-02 1.1647262801e-02 5.1099893000e-04 0.0000e+00 1.0000e+00
<vert_displacement>
494.42303897581377
</vert_displacement>
</event>
<event>
 4   1200 +8.5212000e+10 7.98826000e-03 7.81665300e-03            nan
       50 -1    0    0    0    0 +8.3888654071e-02 +3.1871815778e-02 +2.4338073316e+01 2.4338239271e+01 4.9935713700e-03 0.0000e+00 0.0000e+00
       11 -1    0    0    0    0 -8.1317354916e-19 -3.0894902107e-19 -2.3592078902e-16 5.1100000000e-04 5.1099893000e-04 0.0000e+00 1.0000e+00
       50  1    1    2    0    0 +8.0141636205e-02 +2.6742263955e-02 +2.4299992519e+01 2.4300139901e+01 4.9935713700e-03 0.0000e+00 0.0000e+00
       11  1    1    2    0    0 +3.7470178669e-03 +5.1295518232e-03 +3.8080797174e-02 3.8610370085e-02 5.1099893000e-04 0.0000e+00 1.0000e+00
<vert_displacement>
62.110309802633061
</vert_displacement>
</event>
<event>
 4   1200 +8.5212000e+10 1.42566100e-02 7.81665300e-03            nan
       50 -1    0    0    0    0 -4.2932430969e-03 +3.8942406948e-03 +2.0687904581e+00 2.0688046047e+00 4.9935713700e-03 0.0000e+00 0.0000e+00
       11 -1    0    0    0    0 -6.4079266138e-19 +5.8123912449e-19 +3.0877956677e-16 5.1100000000e-04 5.1099893000e-04 0.0000e+00 1.0000e+00
       50  1    1    2    0    0 -1.3859863277e-02 -5.3557839552e-03 +1.8761131431e+00 1.8761786273e+00 4.9935713700e-03 0.0000e+00 0.0000e+00
       11  1    1    2    0    0 +9.5666201804e-03 +9.2500246500e-03 +1.9267731508e-01 1.9313697741e-01 5.1099893000e-04 0.0000e+00 1.0000e+00
<vert_displacement>
441.96802995038172
</vert_displacement>
</event>
<event>
 4   1200 +8.5212000e+10 1.34033500e-02 7.81665300e-03            nan
       50 -1    0    0    0    0 +9.2901990093e-03 +6.4936448500e-03 +4.0298578377e+00 4.0298768719e+00 4.9935713700e-03 0.0000e+00 0.0000e+00
       11 -1    0    0    0    0 -1.1197520363e-18 -7.8268205412e-19 -4.8572065197e-16 5.1100000000e-04 5.1099893000e-04 0.0000e+00 1.0000e+00
       50  1    1    2    0    0 -2.8524458859e-03 +2.2446302861e-03 +3.8722886793e+00 3.8722936003e+00 4.9935713700e-03 0.0000e+00 0.0000e+00
       11  1    1    2    0    0 +1.2142644895e-02 +4.2490145639e-03 +1.5756915832e-01 1.5809427163e-01 5.1099893000e-04 0.0000e+00 1.0000e+00
<vert_displacement>
28.976035367971924
</vert_displacement>
</event>
<event>
 4   1200 +8.5212000e+10 1.05888600e-02 7.81665300e-03            nan
       50 -1    0    0    0    0 +1.3665811960e-01 -6.3949500520e-02 +4.6653225329e+01 4.6653469577e+01 4.9935713700e-03 0.0000e+00 0.0000e+00
       11 -1    0    0    0    0 -8.3334646898e-18 +3.8996651356e-18 -2.8449316226e-15 5.1100000000e-04 5.1099893000e-04 0.0000e+00 1.0000e+00
       50  1    1    2    0    0 +1.3270455979e-01 -7.2404070580e-02 +4.6567755945e+01 4.6568001584e+01 4.9935713700e-03 0.0000e+00 0.0000e+00
       11  1    1    2    0    0 +3.9535598171e-03 +8.4545700603e-03 +8.5469384586e-02 8.5978992850e-02 5.1099893000e-04 0.0000e+00 1.0000e+00
<vert_displacement>
492.33032443201279
</vert_displacement>
</event>
<event>
 4   1200 +8.5212000e+10 7.38095800e-03 7.81665300e-03            nan
       50 -1    0    0    0    0 -7.6242087654e-03 -6.7826850245e-03 +6.7534333416e+00 6.7534428974e+00 4.9935713700e-03 0.0000e+00 0.0000e+00
       11 -1    0    0    0    0 +7.7552375995e-19 +6.8992515220e-19 -6.8694971227e-16 5.1100000000e-04 5.1099893000e-04 0.0000e+00 1.0000e+00
       50  1    1    2    0    0 -4.4658119701e-03 -1.1200241735e-02 +6.7243981395e+00 6.7244108041e+00 4.9935713700e-03 0.0000e+00 0.0000e+00
       11  1    1    2    0    0 -3.1583967952e-03 +4.4175567102e-03 +2.9035202111e-02 2.9543093256e-02 5.1099893000e-04 0.0000e+00 1.0000e+00
<vert_displacement>
86.888948926773125
</vert_displacement>
</event>
<event>
 4   1200 +8.5212000e+10 2.93113400e-02 7.81665300e-03            nan
       50 -1    0    0    0    0 -1.3747661182e-03 +6.3212825281e-02 +3.0575689972e+01 3.0575755754e+01 4.9935713700e-03 0.0000e+00 0.0000e+00
       11 -1    0    0    0    0 +1.3727597884e-20 -6.3120572666e-19 -3.0531067898e-16 5.1100000000e-04 5.1099893000e-04 0.0000e+00 1.0000e+00
       50  1    1    2    0    0 -4.7940292955e-03 +9.0152731744e-02 +2.9736298579e+01 2.9736436044e+01 4.9935713700e-03 0.0000e+00 0.0000e+00
       11  1    1    2    0    0 +3.4192631774e-03 -2.6939906462e-02 +8.3939139272e-01 8.3983070986e-01 5.1099893000e-04 0.0000e+00 1.0000e+00
<vert_displacement>
76.458528202535533
</vert_displacement>
</event>
<event>
 4   1200 +8.5212000e+10 1.32568300e-02 7.81665300e-03            nan
       50 -1    0    0    0    0 -3.3106989379e-02 -1.3542709218e-02 +9.9997915780e+00 9.9998567998e+00 4.9935713700e-03 0.0000e+00 0.0000e+00
       11 -1    0    0    0    0 -3.2621547131e-18 -1.3344134738e-18 +9.8531663066e-16 5.1100000000e-04 5.1099893000e-04 0.0000e+00 1.0000e+00
       50  1    1    2    0    0 -4.2768045215e-02 -6.4375495822e-03 +9.8499491790e+00 9.8500453964e+00 4.9935713700e-03 0.0000e+00 0.0000e+00
       11  1    1    2    0    0 +9.6610558359e-03 -7.1051596358e-03 +1.4984239904e-01 1.5032240340e-01 5.1099893000e-04 0.0000e+00 1.0000e+00
<vert_displacement>
137.64263830836964
</vert_displacement>
</event>
<event>
 4   1200 +8.5212000e+10 1.40883700e-02 7.81665300e-03            nan
       50 -1    0    0    0    0 -1.7573395947e-02 +1.7323379521e-02 +7.6426824291e+00 7.6427238973e+00 4.9935713700e-03 0.0000e+00 0.0000e+00
       11 -1    0    0    0    0 -6.3820155053e-20 +6.2912186714e-20 +2.7755430942e-17 5.1100000000e-04 5.1099893000e-04 0.0000e+00 1.0000e+00
       50  1    1    2    0    0 -5.0673810163e-03 +1.1735277436e-02 +7.4689367098e+00 7.4689493174e+00 4.9935713700e-03 0.0000e+00 0.0000e+00
       11  1    1    2    0    0 -1.2506014931e-02 +5.5881020841e-03 +1.7374571923e-01 1.7428557991e-01 5.1099893000e-04 0.0000e+00 1.0000e+00
<vert_displacement>
67.433567168575948
</vert_displacement>
</event>
<event>
 4   1200 +8.5212000e+10 5.99969900e-02 7.81665300e-03            nan
       50 -1    0    0    0    0 -1.6577632205e-02 +3.1389286827e-02 +1.4186905448e+01 1.4186950738e+01 4.9935713700e-03 0.0000e+00 0.0000e+00
       11 -1    0    0    0    0 -4.7027479954e-19 +8.9045229064e-19 +4.0245458658e-16 5.1100000000e-04 5.1099893000e-04 0.0000e+00 1.0000e+00
       50  1    1    2    0    0 -1.7887205942e-03 -4.1881323335e-02 +7.8845091764e+00 7.8846221934e+00 4.9935713700e-03 0.0000e+00 0.0000e+00
       11  1    1    2    0    0 -1.4788911611e-02 +7.3270610162e-02 +6.3023962715e+00 6.3028395441e+00 5.1099893000e-04 0.0000e+00 1.0000e+00
<vert_displacement>
172.24170541894355
</vert_displacement>
</event>
<event>
 4   1200 +8.5212000e+10 1.56036300e-02 7.81665300e-03            nan
       50 -1    0    0    0    0 -8.3434364655e-02 +1.2205484943e-02 +2.5553369935e+01 2.5553509548e+01 4.9935713700e-03 0.0000e+00 0.0000e+00
       11 -1    0    0    0    0 -4.8483999369e-18 +7.0926497342e-19 +1.4849152108e-15 5.1100000000e-04 5.1099893000e-04 0.0000e+00 1.0000e+00
       50  1    1    2    0    0 -6.8034854656e-02 +1.0495822849e-02 +2.5337760678e+01 2.5337854684e+01 4.9935713700e-03 0.0000e+00 0.0000e+00
       11  1    1    2    0    0 -1.5399509999e-02 +1.7096620947e-03 +2.1560925749e-01 2.1616586430e-01 5.1099893000e-04 0.0000e+00 1.0000e+00
<vert_displacement>
241.98480568231577
</vert_displacement>
</event>
<event>
 4   1200 +8.5212000e+10 1.19976700e-02 7.81665300e-03            nan
       50 -1    0    0    0    0 +2.6179066896e-04 +2.3702281984e-03 +3.6432133617e+00 3.6432175643e+00 4.9935713700e-03 0.0000e+00 0.0000e+00
       11 -1    0    0    0    0 -1.1966604911e-20 -1.0834452012e-19 -1.6653341802e-16 5.1100000000e-04 5.1099893000e-04 0.0000e+00 -1.0000e+00
       50  1    1    2    0    0 +1.1136882095e-02 +1.5487187154e-03 +3.5227400760e+00 3.5227615598e+00 4.9935713700e-03 0.0000e+00 0.0000e+00
       11  1    1    2    0    0 -1.0875091426e-02 +8.2150948307e-04 +1.2047328569e-01 1.2096700450e-01 5.1099893000e-04 0.0000e+00 -1.0000e+00
<vert_displacement>
150.79452347406593
</vert_displacement>
</event>
<event>
 4   1200 +8.5212000e+10 1.88606300e-02 7.81665300e-03            nan
       50 -1    0    0    0    0 -1.7338491674e-02 -4.6049400279e-02 +2.2529275043e+01 2.2529329330e+01 4.9935713700e-03 0.0000e+00 0.0000e+00
       11 -1    0    0    0    0 +5.2333452214e-19 +1.3899271830e-18 -6.8000998071e-16 5.1100000000e-04 5.1099893000e-04 0.0000e+00 1.0000e+00
       50  1    1    2    0    0 -2.1872653942e-02 -2.7831743576e-02 +2.2200839562e+01 2.2200868344e+01 4.9935713700e-03 0.0000e+00 0.0000e+00
       11  1    1    2    0    0 +4.5341622679e-03 -1.8217656703e-02 +3.2843548095e-01 3.2897198651e-01 5.1099893000e-04 0.0000e+00 1.0000e+00
<vert_displacement>
438.85192635758688
</vert_displacement>
</event>
<event>
 4   1200 +8.5212000e+10 3.11614000e-02 7.81665300e-03            nan
       50 -1    0    0    0    0 +5.9036229996e-03 +6.8724427205e-03 +5.1709693306e+00 5.1709796787e+00 4.9935713700e-03 0.0000e+00 0.0000e+00
       11 -1    0    0    0    0 +2.5350481519e-19 +2.9510646630e-19 +2.2204426411e-16 5.1100000000e-04 5.1099893000e-04 0.0000e+00 1.0000e+00
       50  1    1    2    0    0 -5.6829339666e-03 -2.3752993734e-02 +3.9604880023e+00 3.9605664560e+00 4.9935713700e-03 0.0000e+00 0.0000e+00
       11  1    1    2    0    0 +1.1586556966e-02 +3.0625436454e-02 +1.2104813284e+00 1.2109242227e+00 5.1099893000e-04 0.0000e+00 1.0000e+00
<vert_displacement>
125.16327042096617
</vert_displacement>
</event>
<event>
 4   1200 +8.5212000e+10 1.80384500e-02 7.81665300e-03            nan
       50 -1    0    0    0    0 -1.6852975960e-03 +6.9123881763e-03 +9.6868379134e+00 9.6868418134e+00 4.9935713700e-03 0.0000e+00 0.0000e+00
       11 -1    0    0    0    0 -4.4666962751e-20 +1.8320526056e-19 +2.5673900519e-16 5.1100000000e-04 5.1099893000e-04 0.0000e+00 1.0000e+00
       50  1    1    2    0    0 +8.0889845597e-03 -7.6549099904e-03 +9.3833173950e+00 9.3833253328e+00 4.9935713700e-03 0.0000e+00 0.0000e+00
       11  1    1    2    0    0 -9.7742821558e-03 +1.4567298167e-02 +3.0352051837e-01 3.0402748060e-01 5.1099893000e-04 0.0000e+00 1.0000e+00
<vert_displacement>
463.19443560548081
</vert_displacement>
</event>
<event>
 4   1200 +8.5212000e+10 1.40367900e-02 7.81665300e-03            nan
       50 -1    0    0    0    0 +3.5795814344e-02 -1.2682654853e-03 +2.3218548551e+01 2.3218576716e+01 4.9935713700e-03 0.0000e+00 0.0000e+00
       11 -1    0    0    0    0 +4.7069500150e-19 -1.6676984040e-20 +3.0531096848e-16 5.1100000000e-04 5.1099893000e-04 0.0000e+00 1.0000e+00
       50  1    1    2    0    0 +3.2117243077e-02 +1.1406686206e-02 +2.3048919127e+01 2.3048944867e+01 4.9935713700e-03 0.0000e+00 0.0000e+00
       11  1    1    2    0    0 +3.6785712677e-03 -1.2674951691e-02 +1.6962942475e-01 1.7014284924e-01 5.1099893000e-04 0.0000e+00 1.0000e+00
<vert_displacement>
207.02209370172005
</vert_displacement>
</event>
<event>
 4   1200 +8.5212000e+10 1.67482100e-02 7.81665300e-03            nan
       50 -1    0    0    0    0 +4.5430243462e-02 +3.9121967806e-02 +3.0271162184e+01 3.0271221966e+01 4.9935713700e-03 0.0000e+00 0.0000e+00
       11 -1    0    0    0    0 +3.8947265121e-18 +3.3539191870e-18 +2.5951412302e-15 5.1100000000e-04 5.1099893000e-04 0.0000e+00 1.0000e+00
       50  1    1    2    0    0 +4.9635207367e-02 +5.4111364665e-02 +3.0018964034e+01 3.0019054254e+01 4.9935713700e-03 0.0000e+00 0.0000e+00
       11  1    1    2    0    0 -4.2049639045e-03 -1.4989396859e-02 +2.5219814961e-01 2.5267871206e-01 5.1099893000e-04 0.0000e+00 1.0000e+00
<vert_displacement>
219.68996398957140
</vert_displacement>
</event>
<event>
 4   1200 +8.5212000e+10 6.96690900e-02 7.81665300e-03            nan
       50 -1    0    0    0    0 +7.7936199623e-02 +2.3427328111e-02 +2.5502697022e+01 2.5502827358e+01 4.9935713700e-03 0.0000e+00 0.0000e+00
       11 -1    0    0    0    0 +7.3369785256e-18 +2.2054681148e-18 +2.4008450669e-15 5.1100000000e-04 5.1099893000e-04 0.0000e+00 1.0000e+00
       50  1    1    2    0    0 +2.5301247614e-02 -4.3217931737e-02 +1.9236895236e+01 1.9236961070e+01 4.9935713700e-03 0.0000e+00 0.0000e+00
       11  1    1    2    0    0 +5.2634952009e-02 +6.6645259847e-02 +6.2658017862e+00 6.2663772878e+00 5.1099893000e-04 0.0000e+00 1.0000e+00
<vert_displacement>
442.04397556809533
</vert_displacement>
</event>
<event>
 4   1200 +8.5212000e+10 1.18628600e-02 7.81665300e-03            nan
       50 -1    0    0    0    0 +8.1902469346e-03 -1.5537521689e-02 +6.1725173722e+00 6.1725443815e+00 4.9935713700e-03 0.0000e+00 0.0000e+00
       11 -1    0    0    0    0 -3.6828425758e-19 +6.9866326202e-19 -2.7755463248e-16 5.1100000000e-04 5.1099893000e-04 0.0000e+00 1.0000e+00
       50  1    1    2    0    0 -1.1822590150e-03 -2.0796307550e-02 +6.0570387315e+00 6.0570766063e+00 4.9935713700e-03 0.0000e+00 0.0000e+00
       11  1    1    2    0    0 +9.3725059496e-03 +5.2587858604e-03 +1.1547864075e-01 1.1597877515e-01 5.1099893000e-04 0.0000e+00 1.0000e+00
<vert_displacement>
313.38621889434864
</vert_displacement>
</event>
<event>
 4   1200 +8.5212000e+10 1.05882500e-02 7.81665300e-03            nan
       50 -1    0    0    0    0 -2.8306580077e-04 +1.8876478087e-03 +1.2049583793e+00 1.2049702382e+00 4.9935713700e-03 0.0000e+00 0.0000e+00
       11 -1    0    0    0    0 +2.4450982650e-21 -1.6305340912e-20 -1.0408327797e-17 5.1100000000e-04 5.1099893000e-04 0.0000e+00 1.0000e+00
       50  1    1    2    0    0 -9.1627808849e-03 +4.5602484047e-03 +1.1123586242e+00 1.1124169169e+00 4.9935713700e-03 0.0000e+00 0.0000e+00
       11  1    1    2    0    0 +8.8797150842e-03 -2.6726005960e-03 +9.2599755090e-02 9.3064321287e-02 5.1099893000e-04 0.0000e+00 1.0000e+00
<vert_displacement>
71.948864430068170
</vert_displacement>
</event>
<event>
 4   1200 +8.5212000e+10 5.66349300e-03 7.81665300e-03            nan
       50 -1    0    0    0    0 -2.8826560152e-02 +1.9801126577e-02 +1.0668186954e+01 1.0668245445e+01 4.9935713700e-03 0.0000e+00 0.0000e+00
       11 -1    0    0    0    0 -8.0622929185e-19 +5.5380344287e-19 +2.9837083466e-16 5.1100000000e-04 5.1099893000e-04 0.0000e+00 1.0000e+00
       50  1    1    2    0    0 -3.1426807816e-02 +1.9259490935e-02 +1.0661190258e+01 1.0661255143e+01 4.9935713700e-03 0.0000e+00 0.0000e+00
       11  1    1    2    0    0 +2.6002476640e-03 +5.4163564232e-04 +6.9966958294e-03 7.5013018549e-03 5.1099893000e-04 0.0000e+00 1.0000e+00
<vert_displacement>
256.52394442920377
</vert_displacement>
</event>
<event>
 4   1200 +8.5212000e+10 6.09504800e-03 7.81665300e-03            nan
       50 -1    0    0    0    0 +2.0244481043e-02 +3.0727126037e-02 +1.4468489396e+01 1.4468537049e+01 4.9935713700e-03 0.0000e+00 0.0000e+00
       11 -1    0    0    0    0 +2.9126852422e-19 +4.4208812443e-19 +2.0816614391e-16 5.1100000000e-04 5.1099893000e-04 0.0000e+00 1.0000e+00
       50  1    1    2    0    0 +2.2961782716e-02 +3.2878606382e-02 +1.4456519727e+01 1.4456576213e+01 4.9935713700e-03 0.0000e+00 0.0000e+00
       11  1    1    2    0    0 -2.7173016730e-03 -2.1514803450e-03 +1.1969669374e-02 1.2471836307e-02 5.1099893000e-04 0.0000e+00 1.0000e+00
<vert_displacement>
477.67778739512738
</vert_displacement>
</event>
<event>
 4   1200 +8.5212000e+10 1.48548300e-02 7.81665300e-03            nan
       50 -1    0    0    0    0 -8.6855194284e-02 +3.2521860657e-02 +3.0472971772e+01 3.0473113314e+01 4.9935713700e-03 0.0000e+00 0.0000e+00
       11 -1    0    0    0    0 -2.5315073469e-18 +9.4789183152e-19 +8.8817430620e-16 5.1100000000e-04 5.1099893000e-04 0.0000e+00 1.0000e+00
       50  1    1    2    0    0 -9.7212276489e-02 +2.3553773289e-02 +3.0280210804e+01 3.0280376422e+01 4.9935713700e-03 0.0000e+00 0.0000e+00
       11  1    1    2    0    0 +1.0357082204e-02 +8.9680873680e-03 +1.9276096869e-01 1.9324789239e-01 5.1099893000e-04 0.0000e+00 1.0000e+00
<vert_displacement>
341.50442692757071
</vert_displacement>
</event>
<event>
 4   1200 +8.5212000e+10 2.07111700e-02 7.81665300e-03            nan
       50 -1    0    0    0    0 +1.6714298233e-02 -7.6122493181e-03 +5.9884235122e+00 5.9884537579e+00 4.9935713700e-03 0.0000e+00 0.0000e+00
       11 -1    0    0    0    0 -3.8734133092e-20 +1.7640817108e-20 -1.3877722540e-17 5.1100000000e-04 5.1099893000e-04 0.0000e+00 1.0000e+00
       50  1    1    2    0    0 +8.0581495508e-03 -2.5732461176e-02 +5.5626792272e+00 5.5627468227e+00 4.9935713700e-03 0.0000e+00 0.0000e+00
       11  1    1    2    0    0 +8.6561486818e-03 +1.8120211858e-02 +4.2574428496e-01 4.2621793520e-01 5.1099893000e-04 0.0000e+00 1.0000e+00
<vert_displacement>
10.814779077412631
</vert_displacement>
</event>
<event>
 4   1200 +8.5212000e+10 1.13836000e-02 7.81665300e-03            nan
       50 -1    0    0    0    0 +4.4435384093e-03 -8.4982840844e-03 +3.4379062417e+00 3.4379232435e+00 4.9935713700e-03 0.0000e+00 0.0000e+00
       11 -1    0    0    0    0 -1.4349720769e-19 +2.7443895471e-19 -1.1102187053e-16 5.1100000000e-04 5.1099893000e-04 0.0000e+00 1.0000e+00
       50  1    1    2    0    0 +1.2012347172e-02 -1.5081989037e-03 +3.3322284554e+00 3.3322541898e+00 4.9935713700e-03 0.0000e+00 0.0000e+00
       11  1    1    2    0    0 -7.5688087632e-03 -6.9900851808e-03 +1.0567778631e-01 1.0618005366e-01 5.1099893000e-04 0.0000e+00 1.0000e+00
<vert_displacement>
402.03468451206271
</vert_displacement>
</event>
<event>
 4   1200 +8.5212000e+10 2.83801500e-02 7.81665300e-03            nan
       50 -1    0    0    0    0 -1.4406039193e-02 -1.3847930152e-03 +8.7961983165e+00 8.7962116397e+00 4.9935713700e-03 0.0000e+00 0.0000e+00
       11 -1    0    0    0    0 +1.1364209701e-20 +1.0923945163e-21 -6.9388845120e-18 5.1100000000e-04 5.1099893000e-04 0.0000e+00 1.0000e+00
       50  1    1    2    0    0 -2.6095466394e-02 +2.3437891021e-02 +7.9510116940e+00 7.9510906297e+00 4.9935713700e-03 0.0000e+00 0.0000e+00
       11  1    1    2    0    0 +1.1689427200e-02 -2.4822684036e-02 +8.4518662249e-01 8.4563200998e-01 5.1099893000e-04 0.0000e+00 1.0000e+00
<vert_displacement>
108.76849114517303
</vert_displacement>
</event>
<event>
 4   1200 +8.5212000e+10 1.93544900e-02 7.81665300e-03            nan
       50 -1    0    0    0    0 +1.1542373097e-02 +9.1689223913e-03 +4.1061549913e+00 4.1061844873e+00 4.9935713700e-03 0.0000e+00 0.0000e+00
       11 -1    0    0    0    0 -1.0337680089e-18 -8.2119496268e-19 -3.6775900711e-16 5.1100000000e-04 5.1099893000e-04 0.0000e+00 1.0000e+00
       50  1    1    2    0    0 +1.5457373826e-02 +2.6352369185e-02 +3.7291114297e+00 3.7292399183e+00 4.9935713700e-03 0.0000e+00 0.0000e+00
       11  1    1    2    0    0 -3.9150007295e-03 -1.7183446794e-02 +3.7704356167e-01 3.7745556903e-01 5.1099893000e-04 0.0000e+00 1.0000e+00
<vert_displacement>
239.47428998713079
</vert_displacement>
</event>
<event>
 4   1200 +8.5212000e+10 1.58180000e-02 7.81665300e-03            nan
       50 -1    0    0    0    0 -8.4899556357e-03 +8.6643269515e-03 +6.4486769845e+00 6.4486903272e+00 4.9935713700e-03 0.0000e+00 0.0000e+00
       11 -1    0    0    0    0 +6.6687914502e-19 -6.8057587077e-19 -5.0653835879e-16 5.1100000000e-04 5.1099893000e-04 0.0000e+00 1.0000e+00
       50  1    1    2    0    0 -7.1376542963e-03 +2.3329451544e-02 +6.2200848644e+00 6.2201347144e+00 4.9935713700e-03 0.0000e+00 0.0000e+00
       11  1    1    2    0    0 -1.3523013395e-03 -1.4665124592e-02 +2.2859212016e-01 2.2906661283e-01 5.1099893000e-04 0.0000e+00 1.0000e+00
<vert_displacement>
4.2004077504943780
</vert_displacement>
</event>
<event>
 4   1200 +8.5212000e+10 5.37707200e-02 7.81665300e-03            nan
       50 -1    0    0    0    0 -7.9373547795e-03 +2.6342755597e-02 +1.1471704424e+01 1.1471738502e+01 4.9935713700e-03 0.0000e+00 0.0000e+00
       11 -1    0    0    0    0 -3.2167080424e-19 +1.0675717054e-18 +4.6490455454e-16 5.1100000000e-04 5.1099893000e-04 0.0000e+00 1.0000e+00
       50  1    1    2    0    0 -4.2014278488e-02 -2.3176998394e-02 +6.5566884197e+00 6.5568658932e+00 4.9935713700e-03 0.0000e+00 0.0000e+00
       11  1    1    2    0    0 +3.4076923709e-02 +4.9519753991e-02 +4.9150160041e+00 4.9153836091e+00 5.1099893000e-04 0.0000e+00 1.0000e+00
<vert_displacement>
448.12441598683910
</vert_displacement>
</event>
<event>
 4   1200 +8.5212000e+10 2.47557600e-02 7.81665300e-03            nan
       50 -1    0    0    0    0 +7.2183287097e-04 -5.8505585551e-03 +4.2086503927e+00 4.2086574835e+00 4.9935713700e-03 0.0000e+00 0.0000e+00
       11 -1    0    0    0    0 -2.3802009326e-20 +1.9291868643e-19 -1.3877774195e-16 5.1100000000e-04 5.1099893000e-04 0.0000e+00 1.0000e+00
       50  1    1    2    0    0 +1.3243809446e-02 -2.5584762068e-02 +3.5199631211e+00 3.5200845569e+00 4.9935713700e-03 0.0000e+00 0.0000e+00
       11  1    1    2    0    0 -1.2521976575e-02 +1.9734203512e-02 +6.8868727161e-01 6.8908392659e-01 5.1099893000e-04 0.0000e+00 1.0000e+00
<vert_displacement>
91.606423711599689
</vert_displacement>
</event>
<event>
 4   1200 +8.5212000e+10 3.33246400e-02 7.81665300e-03            nan
       50 -1    0    0    0    0 -5.4871304989e-03 +2.7754004553e-02 +1.2071379458e+01 1.2071413643e+01 4.9935713700e-03 0.0000e+00 0.0000e+00
       11 -1    0    0    0    0 -2.1132566495e-19 +1.0688890064e-18 +4.6490461476e-16 5.1100000000e-04 5.1099893000e-04 0.0000e+00 1.0000e+00
       50  1    1    2    0    0 -3.6289349083e-02 +1.4870477967e-02 +1.0894065170e+01 1.0894136905e+01 4.9935713700e-03 0.0000e+00 0.0000e+00
       11  1    1    2    0    0 +3.0802218584e-02 +1.2883526585e-02 +1.1773142875e+00 1.1777877375e+00 5.1099893000e-04 0.0000e+00 1.0000e+00
<vert_displacement>
130.92760936394214
</vert_displacement>
</event>
<event>
 4   1200 +8.5212000e+10 1.29422900e-02 7.81665300e-03            nan
       50 -1    0    0    0    0 -1.4531274634e-02 +1.2241547647e-02 +5.1136215890e+00 5.1136593262e+00 4.9935713700e-03 0.0000e+00 0.0000e+00
       11 -1    0    0    0    0 -7.0984720064e-19 +5.9799491424e-19 +2.4979845619e-16 5.1100000000e-04 5.1099893000e-04 0.0000e+00 1.0000e+00
       50  1    1    2    0    0 -2.2657153993e-02 +2.0248850754e-02 +4.9700168868e+00 4.9701122878e+00 4.9935713700e-03 0.0000e+00 0.0000e+00
       11  1    1    2    0    0 +8.1258793588e-03 -8.0073031077e-03 +1.4360470222e-01 1.4405803843e-01 5.1099893000e-04 0.0000e+00 1.0000e+00
<vert_displacement>
323.43682394596124
</vert_displacement>
</event>
<event>
 4   1200 +8.5212000e+10 1.67157300e-02 7.81665300e-03            nan
       50 -1    0    0    0    0 -7.7560028379e-03 +2.4986315639e-03 +2.6411423721e+00 2.6411596628e+00 4.9935713700e-03 0.0000e+00 0.0000e+00
       11 -1    0    0    0    0 +3.0565083452e-20 -9.8466805470e-21 -1.0408291319e-17 5.1100000000e-04 5.1099893000e-04 0.0000e+00 1.0000e+00
       50  1    1    2    0    0 -9.1312383070e-03 -1.3565924150e-02 +2.3624162986e+00 2.3624781729e+00 4.9935713700e-03 0.0000e+00 0.0000e+00
       11  1    1    2    0    0 +1.3752354690e-03 +1.6064555714e-02 +2.7872607346e-01 2.7919248981e-01 5.1099893000e-04 0.0000e+00 1.0000e+00
<vert_displacement>
32.833259353868016
</vert_displacement>
</event>
<event>
 4   1200 +8.5212000e+10 5.15704600e-02 7.81665300e-03            nan
       50 -1    0    0    0    0 -2.0599331764e-02 +4.1490852416e-02 +3.2478708560e+01 3.2478741979e+01 4.9935713700e-03 0.0000e+00 0.0000e+00
       11 -1    0    0    0    0 +2.7989897050e-18 -5.6376813623e-18 -4.4131320343e-15 5.1100000000e-04 5.1099893000e-04 0.0000e+00 1.0000e+00
       50  1    1    2    0    0 +1.5020097634e-02 -7.1922783784e-04 +2.9655229074e+01 2.9655233306e+01 4.9935713700e-03 0.0000e+00 0.0000e+00
       11  1    1    2    0    0 -3.5619429398e-02 +4.2210080253e-02 +2.8234794869e+00 2.8240196721e+00 5.1099893000e-04 0.0000e+00 1.0000e+00
<vert_displacement>
61.043551812100198
</vert_displacement>
</event>
<event>
 4   1200 +8.5212000e+10 1.62423500e-02 7.81665300e-03            nan
       50 -1    0    0    0    0 +5.8461793441e-02 -2.4918427669e-02 +2.5592826193e+01 2.5592905583e+01 4.9935713700e-03 0.0000e+00 0.0000e+00
       11 -1    0    0    0    0 -5.3891678730e-18 +2.2970487550e-18 -2.3592166538e-15 5.1100000000e-04 5.1099893000e-04 0.0000e+00 1.0000e+00
       50  1    1    2    0    0 +4.9525594468e-02 -1.1713270472e-02 +2.5356941452e+01 2.5356993014e+01 4.9935713700e-03 0.0000e+00 0.0000e+00
       11  1    1    2    0    0 +8.9361989732e-03 -1.3205157197e-02 +2.3588474127e-01 2.3642356928e-01 5.1099893000e-04 0.0000e+00 1.0000e+00
<vert_displacement>
104.13683273774393
</vert_displacement>
</event>
<event>
 4   1200 +8.5212000e+10 1.60038300e-02 7.81665300e-03            nan
       50 -1    0    0    0    0 +3.4535067388e-03 -7.4667467795e-04 +1.6933849531e+00 1.6933960020e+00 4.9935713700e-03 0.0000e+00 0.0000e+00
       11 -1    0    0    0    0 +1.9811709386e-19 -4.2834437122e-20 +9.7144303190e-17 5.1100000000e-04 5.1099893000e-04 0.0000e+00 1.0000e+00
       50  1    1    2    0    0 -8.5712364873e-03 -1.0603997319e-02 +1.4234892472e+00 1.4235633051e+00 4.9935713700e-03 0.0000e+00 0.0000e+00
       11  1    1    2    0    0 +1.2024743226e-02 +9.8573226412e-03 +2.6989570592e-01 2.7034369690e-01 5.1099893000e-04 0.0000e+00 1.0000e+00
<vert_displacement>
448.21973856043280
</vert_displacement>
</event>
<event>
 4   1200 +8.5212000e+10 8.53227900e-03 7.81665300e-03            nan
       50 -1    0    0    0    0 -1.4357026237e-02 +1.2048079552e-02 +8.2463596367e+00 8.2463824477e+00 4.9935713700e-03 0.0000e+00 0.0000e+00
       11 -1    0    0    0    0 -4.4698512676e-19 +3.7509943053e-19 +2.5673841133e-16 5.1100000000e-04 5.1099893000e-04 0.0000e+00 1.0000e+00
       50  1    1    2    0    0 -1.2922103239e-02 +5.1944562531e-03 +8.1992655515e+00 8.1992789002e+00 4.9935713700e-03 0.0000e+00 0.0000e+00
       11  1    1    2    0    0 -1.4349229981e-03 +6.8536232985e-03 +4.7094085122e-02 4.7614547459e-02 5.1099893000e-04 0.0000e+00 1.0000e+00
<vert_displacement>
158.09937422885264
</vert_displacement>
</event>
<event>
 4   1200 +8.5212000e+10 1.20300400e-02 7.81665300e-03            nan
       50 -1    0    0    0    0 -1.6712768517e-02 +1.9229892671e-02 +1.8541693593e+01 1.8541711770e+01 4.9935713700e-03 0.0000e+00 0.0000e+00
       11 -1    0    0    0    0 +1.9263693145e-18 -2.2165014206e-18 -2.1371773048e-15 5.1100000000e-04 5.1099893000e-04 0.0000e+00 1.0000e+00
       50  1    1    2    0    0 -2.4063687605e-02 +1.1096584917e-02 +1.8423733060e+01 1.8423752794e+01 4.9935713700e-03 0.0000e+00 0.0000e+00
       11  1    1    2    0    0 +7.3509190877e-03 +8.1333077536e-03 +1.1796053320e-01 1.1846997602e-01 5.1099893000e-04 0.0000e+00 1.0000e+00
<vert_displacement>
441.90144532451939
</vert_displacement>
</event>
<event>
 4   1200 +8.5212000e+10 1.14230600e-02 7.81665300e-03            nan
       50 -1    0    0    0    0 -2.3832362260e-03 +1.3850504205e-02 +1.5716246036e+01 1.5716253114e+01 4.9935713700e-03 0.0000e+00 0.0000e+00
       11 -1    0    0    0    0 -1.9781817706e-19 +1.1496474681e-18 +1.3045115324e-15 5.1100000000e-04 5.1099893000e-04 0.0000e+00 1.0000e+00
       50  1    1    2    0    0 -8.7144461614e-03 +5.6801157520e-03 +1.5612281607e+01 1.5612285871e+01 4.9935713700e-03 0.0000e+00 0.0000e+00
       11  1    1    2    0    0 +6.3312099354e-03 +8.1703884531e-03 +1.0396442986e-01 1.0447824301e-01 5.1099893000e-04 0.0000e+00 1.0000e+00
<vert_displacement>
409.57565590412594
</vert_displacement>
</event>
<event>
 4   1200 +8.5212000e+10 2.36542500e-02 7.81665300e-03            nan
       50 -1    0    0    0    0 -6.5597682528e-02 +5.8707967912e-02 +2.2872783533e+01 2.2872953485e+01 4.9935713700e-03 0.0000e+00 0.0000e+00
       11 -1    0    0    0    0 -1.0427682379e-17 +9.3324644850e-18 +3.6359534759e-15 5.1100000000e-04 5.1099893000e-04 0.0000e+00 1.0000e+00
       50  1    1    2    0    0 -8.2873259388e-02 +7.0775481915e-02 +2.2337050059e+01 2.2337316477e+01 4.9935713700e-03 0.0000e+00 0.0000e+00
       11  1    1    2    0    0 +1.7275576860e-02 -1.2067514003e-02 +5.3573347392e-01 5.3614800816e-01 5.1099893000e-04 0.0000e+00 1.0000e+00
<vert_displacement>
79.904559488892005
</vert_displacement>
</event>
<event>
 4   1200 +8.5212000e+10 9.04122700e-03 7.81665300e-03            nan
       50 -1    0    0    0    0 -7.3419319332e-03 -2.1483043539e-02 +8.4617981845e+00 8.4618301138e+00 4.9935713700e-03 0.0000e+00 0.0000e+00
       11 -1    0    0    0    0 +1.3847271609e-19 +4.0518155381e-19 -1.5959398537e-16 5.1100000000e-04 5.1099893000e-04 0.0000e+00 1.0000e+00
       50  1    1    2    0    0 -9.1212339119e-03 -1.4028880699e-02 +8.4058557188e+00 8.4058738574e+00 4.9935713700e-03 0.0000e+00 0.0000e+00
       11  1    1    2    0    0 +1.7793019787e-03 -7.4541628398e-03 +5.5942465700e-02 5.6467256421e-02 5.1099893000e-04 0.0000e+00 1.0000e+00
<vert_displacement>
376.20381814252181
</vert_displacement>
</event>
<event>
 4   1200 +8.5212000e+10 6.53267600e-03 7.81665300e-03            nan
       50 -1    0    0    0    0 +4.2699157432e-02 -1.5454251483e-02 +1.5830860341e+01 1.5830926256e+01 4.9935713700e-03 0.0000e+00 0.0000e+00
       11 -1    0    0    0    0 +2.6201809447e-18 -9.4833101364e-19 +9.7144115008e-16 5.1100000000e-04 5.1099893000e-04 0.0000e+00 1.0000e+00
       50  1    1    2    0    0 +4.2866682377e-02 -1.1230849139e-02 +1.5813486057e+01 1.5813548935e+01 4.9935713700e-03 0.0000e+00 0.0000e+00
       11  1    1    2    0    0 -1.6752494442e-04 -4.2234023435e-03 +1.7374283304e-02 1.7888321112e-02 5.1099893000e-04 0.0000e+00 1.0000e+00
<vert_displacement>
187.41820369295419
</vert_displacement>
</event>
<event>
 4   1200 +8.5212000e+10 1.33734100e-02 7.81665300e-03            nan
       50 -1    0    0    0    0 -4.3543068941e-03 +1.1422028371e-02 +4.7414079809e+00 4.7414263676e+00 4.9935713700e-03 0.0000e+00 0.0000e+00
       11 -1    0    0    0    0 -7.6468356930e-20 +2.0058846645e-19 +8.3266450126e-17 5.1100000000e-04 5.1099893000e-04 0.0000e+00 1.0000e+00
       50  1    1    2    0    0 -1.1057145062e-02 +7.0051429418e-04 +4.5856689912e+00 4.5856850943e+00 4.9935713700e-03 0.0000e+00 0.0000e+00
       11  1    1    2    0    0 +6.7028381676e-03 +1.0721514077e-02 +1.5573898968e-01 1.5625227336e-01 5.1099893000e-04 0.0000e+00 1.0000e+00
<vert_displacement>
164.13056261681811
</vert_displacement>
</event>
<event>
 4   1200 +8.5212000e+10 1.98782600e-02 7.81665300e-03            nan
       50 -1    0    0    0    0 +7.2486172190e-03 +4.0742402469e-02 +2.3385136995e+01 2.3385174143e+01 4.9935713700e-03 0.0000e+00 0.0000e+00
       11 -1    0    0    0    0 -3.3983014599e-19 -1.9100879741e-18 -1.0963435202e-15 5.1100000000e-04 5.1099893000e-04 0.0000e+00 1.0000e+00
       50  1    1    2    0    0 +2.1157601320e-02 +5.3275480302e-02 +2.3017063856e+01 2.3017135778e+01 4.9935713700e-03 0.0000e+00 0.0000e+00
       11  1    1    2    0    0 -1.3908984101e-02 -1.2533077833e-02 +3.6807313869e-01 3.6854936497e-01 5.1099893000e-04 0.0000e+00 1.0000e+00
<vert_displacement>
232.46871570438250
</vert_displacement>
</event>
<event>
 4   1200 +8.5212000e+10 4.59283400e-02 7.81665300e-03            nan
       50 -1    0    0    0    0 -2.8752871763e-02 -1.7744597952e-02 +1.7123762273e+01 1.7123796335e+01 4.9935713700e-03 0.0000e+00 0.0000e+00
       11 -1    0    0    0    0 +7.9228302648e-19 +4.8895094323e-19 -4.7184386696e-16 5.1100000000e-04 5.1099893000e-04 0.0000e+00 1.0000e+00
       50  1    1    2    0    0 -3.7621844815e-02 +2.8520801890e-02 +1.4756355182e+01 1.4756431548e+01 4.9935713700e-03 0.0000e+00 0.0000e+00
       11  1    1    2    0    0 +8.8689730517e-03 -4.6265399842e-02 +2.3674070911e+00 2.3678757868e+00 5.1099893000e-04 0.0000e+00 1.0000e+00
<vert_displacement>
351.69634139953797
</vert_displacement>
</event>
<event>
 4   1200 +8.5212000e+10 3.30677100e-02 7.81665300e-03            nan
       50 -1    0    0    0    0 -1.1789018580e-02 -2.1028110140e-02 +1.2201862627e+01 1.2201887464e+01 4.9935713700e-03 0.0000e+00 0.0000e+00
       11 -1    0    0    0    0 +6.8381888767e-19 +1.2197299367e-18 -7.0776579685e-16 5.1100000000e-04 5.1099893000e-04 0.0000e+00 1.0000e+00
       50  1    1    2    0    0 +1.2107393854e-02 +4.4059585903e-03 +1.1046772247e+01 1.1046780889e+01 4.9935713700e-03 0.0000e+00 0.0000e+00
       11  1    1    2    0    0 -2.3896412434e-02 -2.5434068731e-02 +1.1550903802e+00 1.1556175742e+00 5.1099893000e-04 0.0000e+00 1.0000e+00
<vert_displacement>
239.42380188294194
</vert_displacement>
</event>
<event>
 4   1200 +8.5212000e+10 3.42179600e-02 7.81665300e-03            nan
       50 -1    0    0    0    0 -2.0165113674e-02 +5.0860939430e-03 +8.3551023102e+00 8.3551296848e+00 4.9935713700e-03 0.0000e+00 0.0000e+00
       11 -1    0    0    0    0 -2.2273550194e-18 +5.6178889226e-19 +9.2287003036e-16 5.1100000000e-04 5.1099893000e-04 0.0000e+00 1.0000e+00
       50  1    1    2    0    0 +1.4292252921e-03 -2.4159556800e-02 +7.0197860092e+00 7.0198295049e+00 4.9935713700e-03 0.0000e+00 0.0000e+00
       11  1    1    2    0    0 -2.1594338966e-02 +2.9245650743e-02 +1.3353163010e+00 1.3358111799e+00 5.1099893000e-04 0.0000e+00 1.0000e+00
<vert_displacement>
119.21562676974590
</vert_displacement>
</event>
<event>
 4   1200 +8.5212000e+10 1.90584100e-02 7.81665300e-03            nan
       50 -1    0    0    0    0 +1.5048613062e-02 -9.6607522806e-03 +5.0056608758e+00 5.0056953094e+00 4.9935713700e-03 0.0000e+00 0.0000e+00
       11 -1    0    0    0    0 -4.1720789998e-20 +2.6783479345e-20 -1.3877699250e-17 5.1100000000e-04 5.1099893000e-04 0.0000e+00 1.0000e+00
       50  1    1    2    0    0 +3.4116204825e-04 +3.3706333954e-03 +4.6491682038e+00 4.6491721199e+00 4.9935713700e-03 0.0000e+00 0.0000e+00
       11  1    1    2    0    0 +1.4707451014e-02 -1.3031385676e-02 +3.5649267201e-01 3.5703418946e-01 5.1099893000e-04 0.0000e+00 1.0000e+00
<vert_displacement>
450.83366432463833
</vert_displacement>
</event>
<event>
 4   1200 +8.5212000e+10 2.02321600e-02 7.81665300e-03            nan
       50 -1    0    0    0    0 +1.9938855311e-02 +2.3614472030e-03 +1.2674753723e+01 1.2674770610e+01 4.9935713700e-03 0.0000e+00 0.0000e+00
       11 -1    0    0    0    0 -1.5281937890e-18 -1.8099077867e-19 -9.7144392767e-16 5.1100000000e-04 5.1099893000e-04 0.0000e+00 1.0000e+00
       50  1    1    2    0    0 +3.7971800629e-02 +8.3577211022e-03 +1.2286675974e+01 1.2286738507e+01 4.9935713700e-03 0.0000e+00 0.0000e+00
       11  1    1    2    0    0 -1.8032945318e-02 -5.9962738992e-03 +3.8807774959e-01 3.8854310348e-01 5.1099893000e-04 0.0000e+00 1.0000e+00
<vert_displacement>
168.49938315006696
</vert_displacement>
</event>
<event>
 4   1200 +8.5212000e+10 2.71483100e-02 7.81665300e-03            nan
       50 -1    0    0    0    0 +1.4630965502e-02 +4.7590955695e-02 +2.3743161635e+01 2.3743214364e+01 4.9935713700e-03 0.0000e+00 0.0000e+00
       11 -1    0    0    0    0 +6.3282764782e-19 +2.0584337066e-18 +1.0269540398e-15 5.1100000000e-04 5.1099893000e-04 0.0000e+00 1.0000e+00
       50  1    1    2    0    0 +2.7191276867e-02 +2.2848060313e-02 +2.3024653253e+01 2.3024681187e+01 4.9935713700e-03 0.0000e+00 0.0000e+00
       11  1    1    2    0    0 -1.2560311365e-02 +2.4742895382e-02 +7.1850838192e-01 7.1904417688e-01 5.1099893000e-04 0.0000e+00 1.0000e+00
<vert_displacement>
409.74701134124888
</vert_displacement>
</event>
<event>
 4   1200 +8.5212000e+10 1.46646400e-02 7.81665300e-03            nan
       50 -1    0    0    0    0 -5.0410552557e-02 +5.9407153118e-02 +6.5366972963e+01 6.5367019587e+01 4.9935713700e-03 0.0000e+00 0.0000e+00
       11 -1    0    0    0    0 +7.9198095464e-19 -9.3332311296e-19 -1.0269555683e-15 5.1100000000e-04 5.1099893000e-04 0.0000e+00 1.0000e+00
       50  1    1    2    0    0 -4.0644443773e-02 +4.9361971941e-02 +6.5180432072e+01 6.5180463627e+01 4.9935713700e-03 0.0000e+00 0.0000e+00
       11  1    1    2    0    0 -9.7661087848e-03 +1.0045181177e-02 +1.8654089052e-01 1.8706695994e-01 5.1099893000e-04 0.0000e+00 1.0000e+00
<vert_displacement>
471.92949797592320
</vert_displacement>
</event>
<event>
 4   1200 +8.5212000e+10 1.41747800e-02 7.81665300e-03            nan
       50 -1    0    0    0    0 -8.8805122414e-03 +5.0256247528e-03 +2.5571181661e+00 2.5571434006e+00 4.9935713700e-03 0.0000e+00 0.0000e+00
       11 -1    0    0    0    0 +5.3014746617e-19 -3.0001898045e-19 -1.5265445051e-16 5.1100000000e-04 5.1099893000e-04 0.0000e+00 1.0000e+00
       50  1    1    2    0    0 +3.7822746693e-03 +1.0279279513e-02 +2.3712770617e+00 2.3713076157e+00 4.9935713700e-03 0.0000e+00 0.0000e+00
       11  1    1    2    0    0 -1.2662786911e-02 -5.2536547604e-03 +1.8584110440e-01 1.8634678496e-01 5.1099893000e-04 0.0000e+00 1.0000e+00
<vert_displacement>
145.52047490654914
</vert_displacement>
</event>
<event>
 4   1200 +8.5212000e+10 1.39076700e-02 7.81665300e-03            nan
       50 -1    0    0    0    0 -1.1138244214e-02 +9.9537671881e-03 +5.1795333535e+00 5.1795573010e+00 4.9935713700e-03 0.0000e+00 0.0000e+00
       11 -1    0    0    0    0 +1.9398041993e-19 -1.7335191274e-19 -9.0205245611e-17 5.1100000000e-04 5.1099893000e-04 0.0000e+00 1.0000e+00
       50  1    1    2    0    0 -1.3213978493e-02 +2.2374461530e-02 +5.0089875674e+00 5.0090574575e+00 4.9935713700e-03 0.0000e+00 0.0000e+00
       11  1    1    2    0    0 +2.0757342787e-03 -1.2420694342e-02 +1.7054578609e-01 1.7101084350e-01 5.1099893000e-04 0.0000e+00 1.0000e+00
<vert_displacement>
327.48874124591276
</vert_displacement>
</event>
<event>
 4   1200 +8.5212000e+10 8.63044100e-03 7.81665300e-03            nan
       50 -1    0    0    0    0 +8.5191852550e-03 +9.5921272112e-03 +1.9718788194e+01 1.9718793000e+01 4.9935713700e-03 0.0000e+00 0.0000e+00
       11 -1    0    0    0    0 -8.9935105859e-20 -1.0126191066e-19 -2.0816677306e-16 5.1100000000e-04 5.1099893000e-04 0.0000e+00 1.0000e+00
       50  1    1    2    0    0 +1.2154096171e-02 +3.5532462303e-03 +1.9670186193e+01 1.9670190903e+01 4.9935713700e-03 0.0000e+00 0.0000e+00
       11  1    1    2    0    0 -3.6349109163e-03 +6.0388809809e-03 +4.8602001008e-02 4.9113096855e-02 5.1099893000e-04 0.0000e+00 1.0000e+00
<vert_displacement>
58.813468893301909
</vert_displacement>
</event>
<event>
 4   1200 +8.5212000e+10 1.81020300e-02 7.81665300e-03            nan
       50 -1    0    0    0    0 -1.9987321005e-03 -2.8947395517e-03 +1.6335890977e+00 1.6336005174e+00 4.9935713700e-03 0.0000e+00 0.0000e+00
       11 -1    0    0    0    0 +7.2163888545e-20 +1.0451408787e-19 -5.8980461436e-17 5.1100000000e-04 5.1099893000e-04 0.0000e+00 1.0000e+00
       50  1    1    2    0    0 -6.0855147476e-04 +1.5174872441e-02 +1.2420515953e+00 1.2421544784e+00 4.9935713700e-03 0.0000e+00 0.0000e+00
       11  1    1    2    0    0 -1.3901806258e-03 -1.8069611992e-02 +3.9153750237e-01 3.9195703893e-01 5.1099893000e-04 0.0000e+00 1.0000e+00
<vert_displacement>
160.22089018168344
</vert_displacement>
</event>
<event>
 4   1200 +8.5212000e+10 5.88071700e-03 7.81665300e-03            nan
       50 -1    0    0    0    0 -3.1376469249e-02 -3.2130254273e-02 +1.4558130314e+01 1.4558200439e+01 4.9935713700e-03 0.0000e+00 0.0000e+00
       11 -1    0    0    0    0 -8.6739046389e-19 -8.8822856192e-19 +4.0245393153e-16 5.1100000000e-04 5.1099893000e-04 0.0000e+00 1.0000e+00
       50  1    1    2    0    0 -2.9787549977e-02 -3.4790207167e-02 +1.4548681941e+01 1.4548754889e+01 4.9935713700e-03 0.0000e+00 0.0000e+00
       11  1    1    2    0    0 -1.5889192716e-03 +2.6599528936e-03 +9.4483735518e-03 9.9565504332e-03 5.1099893000e-04 0.0000e+00 1.0000e+00
<vert_displacement>
336.72928094056812
</vert_displacement>
</event>
<event>
 4   1200 +8.5212000e+10 2.33888100e-02 7.81665300e-03            nan
       50 -1    0    0    0    0 +4.7225409940e-02 -3.2650766431e-02 +1.4288635107e+01 1.4288751326e+01 4.9935713700e-03 0.0000e+00 0.0000e+00
       11 -1    0    0    0    0 -2.9813645586e-18 +2.0612597745e-18 -9.0204892560e-16 5.1100000000e-04 5.1099893000e-04 0.0000e+00 1.0000e+00
       50  1    1    2    0    0 +6.1826590184e-02 -4.7394745325e-02 +1.3757931043e+01 1.3758152503e+01 4.9935713700e-03 0.0000e+00 0.0000e+00
       11  1    1    2    0    0 -1.4601180244e-02 +1.4743978894e-02 +5.3070406426e-01 5.3110982322e-01 5.1099893000e-04 0.0000e+00 1.0000e+00
<vert_displacement>
466.49874331564808
</vert_displacement>
</event>
<event>
 4   1200 +8.5212000e+10 1.05393800e-02 7.81665300e-03            nan
       50 -1    0    0    0    0 -1.2612729797e-02 +1.2679892407e-02 +6.1789602597e+00 6.1789881605e+00 4.9935713700e-03 0.0000e+00 0.0000e+00
       11 -1    0    0    0    0 +9.3481581995e-19 -9.3979370111e-19 -4.5796507929e-16 5.1100000000e-04 5.1099893000e-04 0.0000e+00 1.0000e+00
       50  1    1    2    0    0 -2.1253141005e-02 +9.5992691534e-03 +6.0934658743e+00 6.0935125453e+00 4.9935713700e-03 0.0000e+00 0.0000e+00
       11  1    1    2    0    0 +8.6404112078e-03 +3.0806232535e-03 +8.5494385376e-02 8.5986615215e-02 5.1099893000e-04 0.0000e+00 1.0000e+00
<vert_displacement>
202.91684630610868
</vert_displacement>
</event>
<event>
 4   1200 +8.5212000e+10 1.32741600e-02 7.81665300e-03            nan
       50 -1    0    0    0    0 -1.8716212336e-03 +4.7836326667e-03 +1.0203562404e+01 1.0203564919e+01 4.9935713700e-03 0.0000e+00 0.0000e+00
       11 -1    0    0    0    0 -4.4547606541e-20 +1.1385817923e-19 +2.4286125586e-16 5.1100000000e-04 5.1099893000e-04 0.0000e+00 1.0000e+00
       50  1    1    2    0    0 +1.9668590576e-03 +1.6406979951e-02 +1.0053321500e+01 1.0053336320e+01 4.9935713700e-03 0.0000e+00 0.0000e+00
       11  1    1    2    0    0 -3.8384802912e-03 -1.1623347284e-02 +1.5024090457e-01 1.5073959884e-01 5.1099893000e-04 0.0000e+00 1.0000e+00
<vert_displacement>
169.95958157376066
</vert_displacement>
</event>
<event>
 4   1200 +8.5212000e+10 9.26111000e-03 7.81665300e-03            nan
       50 -1    0    0    0    0 -2.2156986494e-02 +1.0842888365e-02 +1.4214420627e+01 1.4214442908e+01 4.9935713700e-03 0.0000e+00 0.0000e+00
       11 -1    0    0    0    0 +1.1897721767e-19 -5.8223472294e-20 -7.6327718007e-17 5.1100000000e-04 5.1099893000e-04 0.0000e+00 1.0000e+00
       50  1    1    2    0    0 -1.8581472388e-02 +3.8183488008e-03 +1.4154654618e+01 1.4154668210e+01 4.9935713700e-03 0.0000e+00 0.0000e+00
       11  1    1    2    0    0 -3.5755141057e-03 +7.0245395645e-03 +5.9766008475e-02 6.0285697691e-02 5.1099893000e-04 0.0000e+00 1.0000e+00
<vert_displacement>
14.208683719295891
</vert_displacement>
</event>
<event>
 4   1200 +8.5212000e+10 2.13873000e-02 7.81665300e-03            nan
       50 -1    0    0    0    0 +1.6133408315e-02 +1.9013389905e-02 +7.5313857607e+00 7.5314286964e+00 4.9935713700e-03 0.0000e+00 0.0000e+00
       11 -1    0    0    0    0 +1.9026069062e-18 +2.2422420754e-18 +8.8817355154e-16 5.1100000000e-04 5.1099893000e-04 0.0000e+00 1.0000e+00
       50  1    1    2    0    0 +2.7253637987e-02 +3.4801330604e-02 +7.0811227220e+00 7.0812624463e+00 4.9935713700e-03 0.0000e+00 0.0000e+00
       11  1    1    2    0    0 -1.1120229672e-02 -1.5787940699e-02 +4.5026303874e-01 4.5067725010e-01 5.1099893000e-04 0.0000e+00 1.0000e+00
<vert_displacement>
228.58642161494566
</vert_displacement>
</event>
<event>
 4   1200 +8.5212000e+10 1.20473900e-02 7.81665300e-03            nan
       50 -1    0    0    0    0 -1.5680301389e-02 +7.7487750938e-03 +5.4382766213e+00 5.4383070400e+00 4.9935713700e-03 0.0000e+00 0.0000e+00
       11 -1    0    0    0    0 +8.2028537638e-19 -4.0536254607e-19 -2.8449317870e-16 5.1100000000e-04 5.1099893000e-04 0.0000e+00 1.0000e+00
       50  1    1    2    0    0 -1.0757626150e-02 +1.7540583649e-02 +5.3179759455e+00 5.3180180981e+00 4.9935713700e-03 0.0000e+00 0.0000e+00
       11  1    1    2    0    0 -4.9226752397e-03 -9.7918085555e-03 +1.2030067581e-01 1.2079994191e-01 5.1099893000e-04 0.0000e+00 1.0000e+00
<vert_displacement>
438.85881181935417
</vert_displacement>
</event>
<event>
 4   1200 +8.5212000e+10 2.22285800e-02 7.81665300e-03            nan
       50 -1    0    0    0    0 +4.7134686937e-03 -6.5302663001e-03 +6.7677657148e+00 6.7677723490e+00 4.9935713700e-03 0.0000e+00 0.0000e+00
       11 -1    0    0    0    0 +1.6914271403e-19 -2.3433845373e-19 +2.4286111468e-16 5.1100000000e-04 5.1099893000e-04 0.0000e+00 1.0000e+00
       50  1    1    2    0    0 +2.3655451983e-02 -1.5910202234e-02 +6.2722240008e+00 6.2722907750e+00 4.9935713700e-03 0.0000e+00 0.0000e+00
       11  1    1    2    0    0 -1.8941983289e-02 +9.3799359341e-03 +4.9554171404e-01 4.9599257394e-01 5.1099893000e-04 0.0000e+00 1.0000e+00
<vert_displacement>
449.00824629152021
</vert_displacement>
</event>
<event>
 4   1200 +8.5212000e+10 8.92183500e-03 7.81665300e-03            nan
       50 -1    0    0    0    0 +2.4076312792e-02 -5.5343081004e-02 +3.8926370189e+01 3.8926417297e+01 4.9935713700e-03 0.0000e+00 0.0000e+00
       11 -1    0    0    0    0 -2.3003852979e-18 +5.2877868377e-18 -3.7192426622e-15 5.1100000000e-04 5.1099893000e-04 0.0000e+00 1.0000e+00
       50  1    1    2    0    0 +1.7226054478e-02 -5.8128769286e-02 +3.8872809280e+01 3.8872856879e+01 4.9935713700e-03 0.0000e+00 0.0000e+00
       11  1    1    2    0    0 +6.8502583142e-03 +2.7856882824e-03 +5.3560908916e-02 5.4071417422e-02 5.1099893000e-04 0.0000e+00 1.0000e+00
<vert_displacement>
432.80251190522785
</vert_displacement>
</event>
<event>
 4   1200 +8.5212000e+10 1.68618800e-02 7.81665300e-03            nan
       50 -1    0    0    0    0 +1.3682064163e-02 +2.5106918400e-02 +1.3458237628e+01 1.3458268929e+01 4.9935713700e-03 0.0000e+00 0.0000e+00
       11 -1    0    0    0    0 +3.5976828307e-19 +6.6018349412e-19 +3.5388279042e-16 5.1100000000e-04 5.1099893000e-04 0.0000e+00 1.0000e+00
       50  1    1    2    0    0 -1.2285935735e-03 +1.7928176827e-02 +1.3199466790e+01 1.3199479967e+01 4.9935713700e-03 0.0000e+00 0.0000e+00
       11  1    1    2    0    0 +1.4910657736e-02 +7.1787415725e-03 +2.5877083842e-01 2.5929996140e-01 5.1099893000e-04 0.0000e+00 1.0000e+00
<vert_displacement>
38.557262566262700
</vert_displacement>
</event>
<event>
 4   1200 +8.5212000e+10 1.15033300e-02 7.81665300e-03            nan
       50 -1    0    0    0    0 +2.4214646308e-02 +7.4632713970e-03 +1.1353806543e+01 1.1353835916e+01 4.9935713700e-03 0.0000e+00 0.0000e+00
       11 -1    0    0    0    0 -4.4396328911e-19 -1.3683530516e-19 -2.0816629872e-16 5.1100000000e-04 5.1099893000e-04 0.0000e+00 1.0000e+00
       50  1    1    2    0    0 +3.4121973652e-02 +9.5617833016e-03 +1.1247706754e+01 1.1247763684e+01 4.9935713700e-03 0.0000e+00 0.0000e+00
       11  1    1    2    0    0 -9.9073273443e-03 -2.0985119047e-03 +1.0609978900e-01 1.0658323149e-01 5.1099893000e-04 0.0000e+00 1.0000e+00
<vert_displacement>
196.06463263523125
</vert_displacement>
</event>
<event>
 4   1200 +8.5212000e+10 1.31612300e-02 7.81665300e-03            nan
       50 -1    0    0    0    0 +3.0318514910e-02 +2.3116801034e-03 +1.4591889037e+01 1.4591921572e+01 4.9935713700e-03 0.0000e+00 0.0000e+00
       11 -1    0    0    0    0 +6.1994643349e-19 +4.7268734624e-20 +2.9837179007e-16 5.1100000000e-04 5.1099893000e-04 0.0000e+00 1.0000e+00
       50  1    1    2    0    0 +4.1500346634e-02 +6.3313532402e-03 +1.4445294812e+01 1.4445356676e+01 4.9935713700e-03 0.0000e+00 0.0000e+00
       11  1    1    2    0    0 -1.1181831724e-02 -4.0196731367e-03 +1.4659422491e-01 1.4707589547e-01 5.1099893000e-04 0.0000e+00 1.0000e+00
<vert_displacement>
133.99150256106816
</vert_displacement>
</event>
<event>
 4   1200 +8.5212000e+10 1.11469900e-02 7.81665300e-03            nan
       50 -1    0    0    0    0 -5.4763659829e-03 +1.5518053018e-02 +2.9078240055e+01 2.9078245141e+01 4.9935713700e-03 0.0000e+00 0.0000e+00
       11 -1    0    0    0    0 -8.1022607123e-20 +2.2958894949e-19 +4.3021135315e-16 5.1100000000e-04 5.1099893000e-04 0.0000e+00 1.0000e+00
       50  1    1    2    0    0 -6.1016923441e-03 +2.5411128460e-02 +2.8980724019e+01 2.8980736232e+01 4.9935713700e-03 0.0000e+00 0.0000e+00
       11  1    1    2    0    0 +6.2532636128e-04 -9.8930754415e-03 +9.7516036690e-02 9.8019908725e-02 5.1099893000e-04 0.0000e+00 1.0000e+00
<vert_displacement>
184.47115991117542
</vert_displacement>
</event>
<event>
 4   1200 +8.5212000e+10 6.17528400e-02 7.81665300e-03            nan
       50 -1    0    0    0    0 -5.3530263181e-02 +3.0632821079e-02 +3.0417571736e+01 3.0417634673e+01 4.9935713700e-03 0.0000e+00 0.0000e+00
       11 -1    0    0    0    0 +3.7855229710e-18 -2.1662745701e-18 -2.1510526884e-15 5.1100000000e-04 5.1099893000e-04 0.0000e+00 1.0000e+00
       50  1    1    2    0    0 -5.2442867941e-02 -3.4923703211e-02 +2.6096215296e+01 2.6096291836e+01 4.9935713700e-03 0.0000e+00 0.0000e+00
       11  1    1    2    0    0 -1.0873952405e-03 +6.5556524290e-02 +4.3213564408e+00 4.3218538371e+00 5.1099893000e-04 0.0000e+00 1.0000e+00
<vert_displacement>
222.85364184994015
</vert_displacement>
</event>
<event>
 4   1200 +8.5212000e+10 2.74530800e-02 7.81665300e-03            nan
       50 -1    0    0    0    0 -1.2408352625e-02 +1.4097182147e-02 +3.2618696336e+01 3.2618702124e+01 4.9935713700e-03 0.0000e+00 0.0000e+00
       11 -1    0    0    0    0 +1.5204081390e-18 -1.7273421478e-18 -3.9968022262e-15 5.1100000000e-04 5.1099893000e-04 0.0000e+00 1.0000e+00
       50  1    1    2    0    0 +1.3561697892e-02 +2.2066070358e-02 +3.1889321175e+01 3.1889332084e+01 4.9935713700e-03 0.0000e+00 0.0000e+00
       11  1    1    2    0    0 -2.5970050517e-02 -7.9688882107e-03 +7.2937516033e-01 7.2988103984e-01 5.1099893000e-04 0.0000e+00 1.0000e+00
<vert_displacement>
300.53739760603099
</vert_displacement>
</event>
<event>
 4   1200 +8.5212000e+10 1.28707900e-02 7.81665300e-03            nan
       50 -1    0    0    0    0 +1.2415720413e-01 +7.6765489323e-02 +3.7480645244e+01 3.7480929828e+01 4.9935713700e-03 0.0000e+00 0.0000e+00
       11 -1    0    0    0    0 -6.7117329831e-18 -4.1498153107e-18 -2.0261416538e-15 5.1100000000e-04 5.1099893000e-04 0.0000e+00 1.0000e+00
       50  1    1    2    0    0 +1.2885016450e-01 +8.7168380832e-02 +3.7342403315e+01 3.7342727685e+01 4.9935713700e-03 0.0000e+00 0.0000e+00
       11  1    1    2    0    0 -4.6929603613e-03 -1.0402891509e-02 +1.3824192884e-01 1.3871314299e-01 5.1099893000e-04 0.0000e+00 1.0000e+00
<vert_displacement>
120.71716693992722
</vert_displacement>
</event>
<event>
 4   1200 +8.5212000e+10 2.12437700e-02 7.81665300e-03            nan
       50 -1    0    0    0    0 -7.3714920943e-02 -3.2522149108e-03 +2.4742641617e+01 2.4742752142e+01 4.9935713700e-03 0.0000e+00 0.0000e+00
       11 -1    0    0    0    0 +1.0708469775e-17 +4.7244498980e-19 -3.5943310595e-15 5.1100000000e-04 5.1099893000e-04 0.0000e+00 1.0000e+00
       50  1    1    2    0    0 -8.3227312603e-02 +1.4416553161e-02 +2.4318131558e+01 2.4318278763e+01 4.9935713700e-03 0.0000e+00 0.0000e+00
       11  1    1    2    0    0 +9.5123916596e-03 -1.7668768072e-02 +4.2451005895e-01 4.2498437880e-01 5.1099893000e-04 0.0000e+00 1.0000e+00
<vert_displacement>
414.49003945391115
</vert_displacement>
</event>
<event>
 4   1200 +8.5212000e+10 1.66489500e-02 7.81665300e-03            nan
       50 -1    0    0    0    0 -7.5554621377e-03 -5.6143131190e-03 +7.7362983592e+00 7.7363056974e+00 4.9935713700e-03 0.0000e+00 0.0000e+00
       11 -1    0    0    0    0 +2.7106768083e-20 +2.0142498353e-20 -2.7755555070e-17 5.1100000000e-04 5.1099893000e-04 0.0000e+00 1.0000e+00
       50  1    1    2    0    0 -1.2201751514e-02 +9.6800423949e-03 +7.4810163210e+00 7.4810342010e+00 4.9935713700e-03 0.0000e+00 0.0000e+00
       11  1    1    2    0    0 +4.6462893767e-03 -1.5294355514e-02 +2.5528203822e-01 2.5578249642e-01 5.1099893000e-04 0.0000e+00 1.0000e+00
<vert_displacement>
494.32910317378173
</vert_displacement>
</event>
<event>
 4   1200 +8.5212000e+10 1.39835800e-02 7.81665300e-03            nan
       50 -1    0    0    0    0 -3.9368975315e-03 -3.6387369303e-03 +2.9186845670e+00 2.9186937621e+00 4.9935713700e-03 0.0000e+00 0.0000e+00
       11 -1    0    0    0    0 -4.6797911138e-20 -4.3253675300e-20 +3.4694410995e-17 5.1100000000e-04 5.1099893000e-04 0.0000e+00 1.0000e+00
       50  1    1    2    0    0 -1.3904722103e-02 -1.1565912280e-02 +2.7407668623e+00 2.7408310858e+00 4.9935713700e-03 0.0000e+00 0.0000e+00
       11  1    1    2    0    0 +9.9678245712e-03 +7.9271753492e-03 +1.7791770465e-01 1.7837367626e-01 5.1099893000e-04 0.0000e+00 1.0000e+00
<vert_displacement>
93.858221545121538
</vert_displacement>
</event>
<event>
 4   1200 +8.5212000e+10 2.68700800e-02 7.81665300e-03            nan
       50 -1    0    0    0    0 -1.1575961725e-01 +1.1582836689e-02 +3.9370522686e+01 3.9370694888e+01 4.9935713700e-03 0.0000e+00 0.0000e+00
       11 -1    0    0    0    0 +1.1098726576e-17 -1.1105318110e-18 -3.7747418038e-15 5.1100000000e-04 5.1099893000e-04 0.0000e+00 1.0000e+00
       50  1    1    2    0    0 -8.9768273164e-02 +2.2490030445e-02 +3.8676271854e+01 3.8676382892e+01 4.9935713700e-03 0.0000e+00 0.0000e+00
       11  1    1    2    0    0 -2.5991344089e-02 -1.0907193756e-02 +6.9425083223e-01 6.9482299617e-01 5.1099893000e-04 0.0000e+00 1.0000e+00
<vert_displacement>
303.85451055769551
</vert_displacement>
</event>
<event>
 4   1200 +8.5212000e+10 1.02850400e-02 7.81665300e-03            nan
       50 -1    0    0    0    0 +4.3621867418e-02 -7.3939834413e-02 +3.8024615669e+01 3.8024712907e+01 4.9935713700e-03 0.0000e+00 0.0000e+00
       11 -1    0    0    0    0 +3.3273986983e-18 -5.6399994623e-18 +2.9004502597e-15 5.1100000000e-04 5.1099893000e-04 0.0000e+00 1.0000e+00
       50  1    1    2    0    0 +4.9097817961e-02 -8.0846536514e-02 +3.7945323380e+01 3.7945441599e+01 4.9935713700e-03 0.0000e+00 0.0000e+00
       11  1    1    2    0    0 -5.4759505436e-03 +6.9067021004e-03 +7.9292288822e-02 7.9782308532e-02 5.1099893000e-04 0.0000e+00 1.0000e+00
<vert_displacement>
225.11681173402923
</vert_displacement>
</event>
<event>
 4   1200 +8.5212000e+10 5.99089200e-03 7.81665300e-03            nan
       50 -1    0    0    0    0 -1.6431972364e-02 -1.4227668085e-02 +1.0129439257e+01 1.0129463808e+01 4.9935713700e-03 0.0000e+00 0.0000e+00
       11 -1    0    0    0    0 -1.6321555304e-18 -1.4132063173e-18 +1.0061372997e-15 5.1100000000e-04 5.1099893000e-04 0.0000e+00 1.0000e+00
       50  1    1    2    0    0 -1.9722525697e-02 -1.4323913960e-02 +1.0118702615e+01 1.0118733206e+01 4.9935713700e-03 0.0000e+00 0.0000e+00
       11  1    1    2    0    0 +3.2905533331e-03 +9.6245875020e-05 +1.0736642540e-02 1.1241602085e-02 5.1099893000e-04 0.0000e+00 1.0000e+00
<vert_displacement>
215.92537104904173
</vert_displacement>
</event>
<event>
 4   1200 +8.5212000e+10 2.18933400e-02 7.81665300e-03            nan
       50 -1    0    0    0    0 -8.9576064994e-03 +4.6903730406e-03 +2.8098841746e+01 2.8098844009e+01 4.9935713700e-03 0.0000e+00 0.0000e+00
       11 -1    0    0    0    0 -1.1768074613e-18 +6.1619875699e-19 +3.6914913179e-15 5.1100000000e-04 5.1099893000e-04 0.0000e+00 1.0000e+00
       50  1    1    2    0    0 +4.3131184668e-03 +2.1409972706e-02 +2.7646960434e+01 2.7646969512e+01 4.9935713700e-03 0.0000e+00 0.0000e+00
       11  1    1    2    0    0 -1.3270724966e-02 -1.6719599665e-02 +4.5188131201e-01 4.5238549758e-01 5.1099893000e-04 0.0000e+00 1.0000e+00
<vert_displacement>
82.425540061837751
</vert_displacement>
</event>
<event>
 4   1200 +8.5212000e+10 1.23853300e-02 7.81665300e-03            nan
       50 -1    0    0    0    0 +1.6791843244e-02 -1.3352727241e-03 +1.5691870877e+01 1.5691880712e+01 4.9935713700e-03 0.0000e+00 0.0000e+00
       11 -1    0    0    0    0 -1.0840928953e-18 +8.6206121178e-20 -1.0130779263e-15 5.1100000000e-04 5.1099893000e-04 0.0000e+00 1.0000e+00
       50  1    1    2    0    0 +2.6470907384e-02 -6.9930601936e-03 +1.5565135594e+01 1.5565160475e+01 4.9935713700e-03 0.0000e+00 0.0000e+00
       11  1    1    2    0    0 -9.6790641397e-03 +5.6577874695e-03 +1.2673528284e-01 1.2723123783e-01 5.1099893000e-04 0.0000e+00 1.0000e+00
<vert_displacement>
221.67471902631303
</vert_displacement>
</event>
<event>
 4   1200 +8.5212000e+10 1.82221400e-02 7.81665300e-03            nan
       50 -1    0    0    0    0 +2.3016476386e-02 +2.3271937085e-03 +1.2544554828e+01 1.2544577152e+01 4.9935713700e-03 0.0000e+00 0.0000e+00
       11 -1    0    0    0    0 +2.2407105571e-18 +2.2655802841e-19 +1.2212432505e-15 5.1100000000e-04 5.1099893000e-04 0.0000e+00 1.0000e+00
       50  1    1    2    0    0 +1.6880114916e-02 -1.4345420461e-02 +1.2236475522e+01 1.2236496592e+01 4.9935713700e-03 0.0000e+00 0.0000e+00
       11  1    1    2    0    0 +6.1363614699e-03 +1.6672614170e-02 +3.0807930604e-01 3.0859156004e-01 5.1099893000e-04 0.0000e+00 1.0000e+00
<vert_displacement>
100.09283455976178
</vert_displacement>
</event>
<event>
 4   1200 +8.5212000e+10 8.02199900e-02 7.81665300e-03            nan
       50 -1    0    0    0    0 -4.3262287920e-02 +5.3060302761e-02 +3.2837521479e+01 3.2837593225e+01 4.9935713700e-03 0.0000e+00 0.0000e+00
       11 -1    0    0    0    0 +1.4626768890e-18 -1.7939429999e-18 -1.1102206117e-15 5.1100000000e-04 5.1099893000e-04 0.0000e+00 1.0000e+00
       50  1    1    2    0    0 -5.1944586502e-02 +1.1698634935e-01 +2.4390625354e+01 2.4390961731e+01 4.9935713700e-03 0.0000e+00 0.0000e+00
       11  1    1    2    0    0 +8.6822985816e-03 -6.3926046585e-02 +8.4468961249e+00 8.4471424948e+00 5.1099893000e-04 0.0000e+00 1.0000e+00
<vert_displacement>
125.05258975693307
</vert_displacement>
</event>
<event>
 4   1200 +8.5212000e+10 2.14567200e-02 7.81665300e-03            nan
       50 -1    0    0    0    0 +1.3697120249e-02 -7.9147125940e-03 +4.4087828481e+00 4.4088140572e+00 4.9935713700e-03 0.0000e+00 0.0000e+00
       11 -1    0    0    0    0 +3.6647717657e-19 -2.1176433236e-19 +1.1796043701e-16 5.1100000000e-04 5.1099893000e-04 0.0000e+00 1.0000e+00
       50  1    1    2    0    0 +2.3931213042e-02 +1.0209371660e-02 +3.9304745725e+00 3.9305638571e+00 4.9935713700e-03 0.0000e+00 0.0000e+00
       11  1    1    2    0    0 -1.0234092793e-02 -1.8124084254e-02 +4.7830827563e-01 4.7876120012e-01 5.1099893000e-04 0.0000e+00 1.0000e+00
<vert_displacement>
482.55423405639124
</vert_displacement>
</event>
<event>
 4   1200 +8.5212000e+10 6.98822600e-03 7.81665300e-03            nan
       50 -1    0    0    0    0 +2.3187994448e-02 +7.0226293061e-03 +8.4458650177e+00 8.4459012446e+00 4.9935713700e-03 0.0000e+00 0.0000e+00
       11 -1    0    0    0    0 +1.6764483738e-18 +5.0772288679e-19 +6.1062015113e-16 5.1100000000e-04 5.1099893000e-04 0.0000e+00 1.0000e+00
       50  1    1    2    0    0 +2.6048335367e-02 +1.0920449471e-02 +8.4224020237e+00 8.4224508640e+00 4.9935713700e-03 0.0000e+00 0.0000e+00
       11  1    1    2    0    0 -2.8603409195e-03 -3.8978201646e-03 +2.3462993991e-02 2.3961380576e-02 5.1099893000e-04 0.0000e+00 1.0000e+00
<vert_displacement>
94.805548752496350
</vert_displacement>
</event>
<event>
 4   1200 +8.5212000e+10 1.24417500e-02 7.81665300e-03            nan
       50 -1    0    0    0    0 +4.7016980842e-03 -6.1596988247e-03 +2.9166509912e+00 2.9166655598e+00 4.9935713700e-03 0.0000e+00 0.0000e+00
       11 -1    0    0    0    0 +1.0626312738e-19 -1.3921541730e-19 +6.5919259433e-17 5.1100000000e-04 5.1099893000e-04 0.0000e+00 1.0000e+00
       50  1    1    2    0    0 -4.2949041984e-03 +1.3838645393e-03 +2.7834570380e+00 2.7834651748e+00 4.9935713700e-03 0.0000e+00 0.0000e+00
       11  1    1    2    0    0 +8.9966022826e-03 -7.5435633640e-03 +1.3319395323e-01 1.3371138507e-01 5.1099893000e-04 0.0000e+00 1.0000e+00
<vert_displacement>
47.430678964077742
</vert_displacement>
</event>
<event>
 4   1200 +8.5212000e+10 6.48233500e-02 7.81665300e-03            nan
       50 -1    0    0    0    0 -3.0202882094e-02 +1.1310426900e-02 +1.9053079725e+01 1.9053107676e+01 4.9935713700e-03 0.0000e+00 0.0000e+00
       11 -1    0    0    0    0 +1.0119537284e-18 -3.7895816156e-19 -6.3837732461e-16 5.1100000000e-04 5.1099893000e-04 0.0000e+00 1.0000e+00
       50  1    1    2    0    0 -8.4199928178e-02 +2.0235058172e-02 +1.3108921464e+01 1.3109208442e+01 4.9935713700e-03 0.0000e+00 0.0000e+00
       11  1    1    2    0    0 +5.3997046084e-02 -8.9246312717e-03 +5.9441582613e+00 5.9444102337e+00 5.1099893000e-04 0.0000e+00 1.0000e+00
<vert_displacement>
196.84435315260959
</vert_displacement>
</event>
<event>
 4   1200 +8.5212000e+10 2.13551800e-02 7.81665300e-03            nan
       50 -1    0    0    0    0 -5.4504105803e-03 -2.5434079873e-04 +1.8081392938e+00 1.8081544219e+00 4.9935713700e-03 0.0000e+00 0.0000e+00
       11 -1    0    0    0    0 +2.0916335750e-20 +9.7605078785e-22 -6.9388623105e-18 5.1100000000e-04 5.1099893000e-04 0.0000e+00 1.0000e+00
       50  1    1    2    0    0 +8.3346193525e-03 +1.6980197044e-02 +1.1235300443e+00 1.1237003556e+00 4.9935713700e-03 0.0000e+00 0.0000e+00
       11  1    1    2    0    0 -1.3785029933e-02 -1.7234537842e-02 +6.8460924958e-01 6.8496506631e-01 5.1099893000e-04 0.0000e+00 1.0000e+00
<vert_displacement>
92.051105595732253
</vert_displacement>
</event>
<event>
 4   1200 +8.5212000e+10 1.36455400e-02 7.81665300e-03            nan
       50 -1    0    0    0    0 +5.8412376567e-03 -1.8568192451e-03 +4.6626197645e+00 4.6626264671e+00 4.9935713700e-03 0.0000e+00 0.0000e+00
       11 -1    0    0    0    0 -2.2601543344e-19 +7.1846042084e-20 -1.8041108562e-16 5.1100000000e-04 5.1099893000e-04 0.0000e+00 1.0000e+00
       50  1    1    2    0    0 +1.3996266748e-02 -1.1350751259e-02 +4.4990260817e+00 4.4990649423e+00 4.9935713700e-03 0.0000e+00 0.0000e+00
       11  1    1    2    0    0 -8.1550290917e-03 +9.4939320141e-03 +1.6359368279e-01 1.6407252486e-01 5.1099893000e-04 0.0000e+00 1.0000e+00
<vert_displacement>
207.82582537082487
</vert_displacement>
</event>
<event>
 4   1200 +8.5212000e+10 1.30962600e-02 7.81665300e-03            nan
       50 -1    0    0    0    0 +3.0658809240e-03 +7.1294669779e-03 +4.6860693435e+00 4.6860784305e+00 4.9935713700e-03 0.0000e+00 0.0000e+00
       11 -1    0    0    0    0 -2.2244994563e-19 -5.1728999949e-19 -3.4000533502e-16 5.1100000000e-04 5.1099893000e-04 0.0000e+00 1.0000e+00
       50  1    1    2    0    0 -6.1486580698e-03 -1.0611652190e-03 +4.5379433227e+00 4.5379503598e+00 4.9935713700e-03 0.0000e+00 0.0000e+00
       11  1    1    2    0    0 +9.2145389938e-03 +8.1906321969e-03 +1.4812602081e-01 1.4863907073e-01 5.1099893000e-04 0.0000e+00 1.0000e+00
<vert_displacement>
189.79405562638101
</vert_displacement>
</event>
<event>
 4   1200 +8.5212000e+10 5.71588400e-03 7.81665300e-03            nan
       50 -1    0    0    0    0 +2.2939901822e-02 -1.1436037506e-02 +1.4248806569e+01 1.4248830499e+01 4.9935713700e-03 0.0000e+00 0.0000e+00
       11 -1    0    0    0    0 -4.3567959019e-19 +2.1719570436e-19 -2.7061642438e-16 5.1100000000e-04 5.1099893000e-04 0.0000e+00 1.0000e+00
       50  1    1    2    0    0 +2.2043791398e-02 -1.4067052587e-02 +1.4241232531e+01 1.4241257415e+01 4.9935713700e-03 0.0000e+00 0.0000e+00
       11  1    1    2    0    0 +8.9611042415e-04 +2.6310150805e-03 +7.5740376532e-03 8.0840843962e-03 5.1099893000e-04 0.0000e+00 1.0000e+00
<vert_displacement>
279.98290065051322
</vert_displacement>
</event>
<event>
 4   1200 +8.5212000e+10 9.33650400e-03 7.81665300e-03            nan
       50 -1    0    0    0    0 +2.8114034760e-02 -1.2633651350e-02 +1.5160169363e+01 1.5160201518e+01 4.9935713700e-03 0.0000e+00 0.0000e+00
       11 -1    0    0    0    0 +6.3052825673e-19 -2.8334154915e-19 +3.4000509858e-16 5.1100000000e-04 5.1099893000e-04 0.0000e+00 1.0000e+00
       50  1    1    2    0    0 +3.1650450006e-02 -1.9576503582e-02 +1.5099012973e+01 1.5099059662e+01 4.9935713700e-03 0.0000e+00 0.0000e+00
       11  1    1    2    0    0 -3.5364152464e-03 +6.9428522318e-03 +6.1156390280e-02 6.1652855748e-02 5.1099893000e-04 0.0000e+00 1.0000e+00
<vert_displacement>
363.60932039619524
</vert_displacement>
</event>
<event>
 4   1200 +8.5212000e+10 2.07052200e-02 7.81665300e-03            nan
       50 -1    0    0    0    0 +5.7189274667e-03 +1.4768968982e-02 +1.0237013645e+01 1.0237027114e+01 4.9935713700e-03 0.0000e+00 0.0000e+00
       11 -1    0    0    0    0 -1.5505687428e-19 -4.0043000719e-19 -2.7755542399e-16 5.1100000000e-04 5.1099893000e-04 0.0000e+00 1.0000e+00
       50  1    1    2    0    0 +2.0210944710e-02 +4.9903493114e-04 +9.8253315659e+00 9.8253536347e+00 4.9935713700e-03 0.0000e+00 0.0000e+00
       11  1    1    2    0    0 -1.4492017243e-02 +1.4269934050e-02 +4.1168207944e-01 4.1218447961e-01 5.1099893000e-04 0.0000e+00 1.0000e+00
<vert_displacement>
203.58244106292500
</vert_displacement>
</event>
<event>
 4   1200 +8.5212000e+10 2.32948700e-02 7.81665300e-03            nan
       50 -1    0    0    0    0 -1.1445652373e-02 +3.0580343426e-02 +1.8677275787e+01 1.8677304996e+01 4.9935713700e-03 0.0000e+00 0.0000e+00
       11 -1    0    0    0    0 -1.4032354351e-18 +3.7491459741e-18 +2.2898314891e-15 5.1100000000e-04 5.1099893000e-04 0.0000e+00 1.0000e+00
       50  1    1    2    0    0 -3.1362675216e-02 +1.9324959982e-02 +1.8156136524e+01 1.8156174583e+01 4.9935713700e-03 0.0000e+00 0.0000e+00
       11  1    1    2    0    0 +1.9917022843e-02 +1.1255383444e-02 +5.2113926291e-01 5.2164141316e-01 5.1099893000e-04 0.0000e+00 1.0000e+00
<vert_displacement>
425.56893293512451
</vert_displacement>
</event>
<event>
 4   1200 +8.5212000e+10 1.34936800e-02 7.81665300e-03            nan
       50 -1    0    0    0    0 +4.3971208329e-03 -3.2367112334e-03 +3.5973269814e+00 3.5973345908e+00 4.9935713700e-03 0.0000e+00 0.0000e+00
       11 -1    0    0    0    0 +1.3994654344e-19 -1.0301435108e-19 +1.1449161754e-16 5.1100000000e-04 5.1099893000e-04 0.0000e+00 1.0000e+00
       50  1    1    2    0    0 +1.4877312026e-03 +9.1468766484e-03 +3.4363009527e+00 3.4363170767e+00 4.9935713700e-03 0.0000e+00 0.0000e+00
       11  1    1    2    0    0 +2.9093896302e-03 -1.2383587882e-02 +1.6102602873e-01 1.6152851403e-01 5.1099893000e-04 0.0000e+00 1.0000e+00
<vert_displacement>
457.87425924144111
</vert_displacement>
</event>
<event>
 4   1200 +8.5212000e+10 1.86741300e-02 7.81665300e-03            nan
       50 -1    0    0    0    0 +1.1005035676e-03 +3.3799613252e-02 +1.8340284876e+01 1.8340316733e+01 4.9935713700e-03 0.0000e+00 0.0000e+00
       11 -1    0    0    0    0 -6.9116696830e-20 -2.1227715119e-18 -1.1518544299e-15 5.1100000000e-04 5.1099893000e-04 0.0000e+00 1.0000e+00
       50  1    1    2    0    0 +1.2391617264e-02 +1.9210266833e-02 +1.8017805904e+01 1.8017821098e+01 4.9935713700e-03 0.0000e+00 0.0000e+00
       11  1    1    2    0    0 -1.1291113696e-02 +1.4589346419e-02 +3.2247897129e-01 3.2300663511e-01 5.1099893000e-04 0.0000e+00 1.0000e+00
<vert_displacement>
284.33535155325222
</vert_displacement>
</event>
<event>
 4   1200 +8.5212000e+10 1.14450700e-02 7.81665300e-03            nan
       50 -1    0    0    0    0 +6.3444861437e-02 -3.9642706498e-02 +1.8923791236e+01 1.8923939771e+01 4.9935713700e-03 0.0000e+00 0.0000e+00
       11 -1    0    0    0    0 +4.8853361620e-18 -3.0525395316e-18 +1.4571563331e-15 5.1100000000e-04 5.1099893000e-04 0.0000e+00 1.0000e+00
       50  1    1    2    0    0 +7.1805572660e-02 -3.3930507192e-02 +1.8819424589e+01 1.8819592826e+01 4.9935713700e-03 0.0000e+00 0.0000e+00
       11  1    1    2    0    0 -8.3607112228e-03 -5.7121993063e-03 +1.0436664694e-01 1.0485794594e-01 5.1099893000e-04 0.0000e+00 1.0000e+00
<vert_displacement>
273.75974597524078
</vert_displacement>
</event>
<event>
 4   1200 +8.5212000e+10 2.74263400e-02 7.81665300e-03            nan
       50 -1    0    0    0    0 -2.7315830728e-03 +9.0070120374e-02 +3.8503938891e+01 3.8504044660e+01 4.9935713700e-03 0.0000e+00 0.0000e+00
       11 -1    0    0    0    0 -2.4613213311e-19 +8.1158618526e-18 +3.4694374507e-15 5.1100000000e-04 5.1099893000e-04 0.0000e+00 1.0000e+00
       50  1    1    2    0    0 -2.1411149232e-02 +1.0777490334e-01 +3.7778601186e+01 3.7778761314e+01 4.9935713700e-03 0.0000e+00 0.0000e+00
       11  1    1    2    0    0 +1.8679566159e-02 -1.7704782970e-02 +7.2533770482e-01 7.2579434600e-01 5.1099893000e-04 0.0000e+00 1.0000e+00
<vert_displacement>
260.68910821491011
</vert_displacement>
</event>
<event>
 4   1200 +8.5212000e+10 6.26077100e-03 7.81665300e-03            nan
       50 -1    0    0    0    0 +7.0117971798e-02 -3.0491483144e-02 +2.0525513787e+01 2.0525656809e+01 4.9935713700e-03 0.0000e+00 0.0000e+00
       11 -1    0    0    0    0 -4.2667288788e-19 +1.8554286206e-19 -1.2489922367e-16 5.1100000000e-04 5.1099893000e-04 0.0000e+00 1.0000e+00
       50  1    1    2    0    0 +7.1117979738e-02 -2.6842543334e-02 +2.0511551331e+01 2.0511692793e+01 4.9935713700e-03 0.0000e+00 0.0000e+00
       11  1    1    2    0    0 -1.0000079401e-03 -3.6489398100e-03 +1.3962456280e-02 1.4475015817e-02 5.1099893000e-04 0.0000e+00 1.0000e+00
<vert_displacement>
26.677802902881460
</vert_displacement>
</event>
<event>
 4   1200 +8.5212000e+10 1.08888200e-02 7.81665300e-03            nan
       50 -1    0    0    0    0 -7.5090591949e-03 +1.6707423677e-03 +1.7738387358e+01 1.7738389728e+01 4.9935713700e-03 0.0000e+00 0.0000e+00
       11 -1    0    0    0    0 -7.9309527765e-19 +1.7646123803e-19 +1.8735011779e-15 5.1100000000e-04 5.1099893000e-04 0.0000e+00 1.0000e+00
       50  1    1    2    0    0 -1.2989166833e-02 +9.6100420331e-03 +1.7646287660e+01 1.7646295764e+01 4.9935713700e-03 0.0000e+00 0.0000e+00
       11  1    1    2    0    0 +5.4801076381e-03 -7.9392996654e-03 +9.2099697163e-02 9.2604964210e-02 5.1099893000e-04 0.0000e+00 1.0000e+00
<vert_displacement>
473.30273668271923
</vert_displacement>
</event>
<event>
 4   1200 +8.5212000e+10 8.32740000e-03 7.81665300e-03            nan
       50 -1    0    0    0    0 -7.0584423733e-02 -2.3621872508e-02 +4.5104949042e+01 4.5105010732e+01 4.9935713700e-03 0.0000e+00 0.0000e+00
       11 -1    0    0    0    0 -4.6692033484e-18 -1.5626014973e-18 +2.9837203161e-15 5.1100000000e-04 5.1099893000e-04 0.0000e+00 1.0000e+00
       50  1    1    2    0    0 -6.4015545589e-02 -2.2133087573e-02 +4.5061463730e+01 4.5061514913e+01 4.9935713700e-03 0.0000e+00 0.0000e+00
       11  1    1    2    0    0 -6.5688781437e-03 -1.4887849355e-03 +4.3485311799e-02 4.4006818822e-02 5.1099893000e-04 0.0000e+00 1.0000e+00
<vert_displacement>
330.88064542224299
</vert_displacement>
</event>
<event>
 4   1200 +8.5212000e+10 1.13621400e-02 7.81665300e-03            nan
       50 -1    0    0    0    0 -2.2719957815e-02 +1.7924211090e-02 +2.3231370806e+01 2.3231389367e+01 4.9935713700e-03 0.0000e+00 0.0000e+00
       11 -1    0    0    0    0 -3.5287910045e-19 +2.7839309989e-19 +3.6082220305e-16 5.1100000000e-04 5.1099893000e-04 0.0000e+00 1.0000e+00
       50  1    1    2    0    0 -2.8302003818e-02 +9.3672853118e-03 +2.3128997805e+01 2.3129017557e+01 4.9935713700e-03 0.0000e+00 0.0000e+00
       11  1    1    2    0    0 +5.5820460028e-03 +8.5569257778e-03 +1.0237300039e-01 1.0288280977e-01 5.1099893000e-04 0.0000e+00 1.0000e+00
<vert_displacement>
445.09645067580271
</vert_displacement>
</event>
<event>
 4   1200 +8.5212000e+10 1.99873500e-02 7.81665300e-03            nan
       50 -1    0    0    0    0 +8.2416252325e-02 -4.4214617857e-03 +3.5680104429e+01 3.5680200237e+01 4.9935713700e-03 0.0000e+00 0.0000e+00
       11 -1    0    0    0    0 +7.3087090455e-18 -3.9209715118e-19 +3.1641271548e-15 5.1100000000e-04 5.1099893000e-04 0.0000e+00 1.0000e+00
       50  1    1    2    0    0 +8.6554172513e-02 -2.3073813661e-02 +3.5309744238e+01 3.5309858214e+01 4.9935713700e-03 0.0000e+00 0.0000e+00
       11  1    1    2    0    0 -4.1379201879e-03 +1.8652351876e-02 +3.7036019046e-01 3.7085302266e-01 5.1099893000e-04 0.0000e+00 1.0000e+00
<vert_displacement>
102.48938800853038
</vert_displacement>
</event>
<event>
 4   1200 +8.5212000e+10 6.95906800e-03 7.81665300e-03            nan
       50 -1    0    0    0    0 -5.5158865672e-03 +2.6897295964e-02 +1.0796447731e+01 1.0796483799e+01 4.9935713700e-03 0.0000e+00 0.0000e+00
       11 -1    0    0    0    0 +2.3751885190e-19 -1.1582208551e-18 -4.6490438815e-16 5.1100000000e-04 5.1099893000e-04 0.0000e+00 1.0000e+00
       50  1    1    2    0    0 -1.0224551360e-02 +2.5739733203e-02 +1.0773410620e+01 1.0773447377e+01 4.9935713700e-03 0.0000e+00 0.0000e+00
       11  1    1    2    0    0 +4.7086647930e-03 +1.1575627610e-03 +2.3037110903e-02 2.3547421819e-02 5.1099893000e-04 0.0000e+00 1.0000e+00
<vert_displacement>
155.48181149652640
</vert_displacement>
</event>
<event>
 4   1200 +8.5212000e+10 1.06706600e-02 7.81665300e-03            nan
       50 -1    0    0    0    0 +2.1232034389e-02 +5.4505246784e-03 +1.3886510593e+01 1.3886528792e+01 4.9935713700e-03 0.0000e+00 0.0000e+00
       11 -1    0    0    0    0 +2.3022258133e-18 +5.9100971583e-19 +1.5057381011e-15 5.1100000000e-04 5.1099893000e-04 0.0000e+00 1.0000e+00
       50  1    1    2    0    0 +2.5946714623e-02 -2.6720152859e-03 +1.3798937236e+01 1.3798962793e+01 4.9935713700e-03 0.0000e+00 0.0000e+00
       11  1    1    2    0    0 -4.7146802339e-03 +8.1225399644e-03 +8.7573357312e-02 8.8076999813e-02 5.1099893000e-04 0.0000e+00 1.0000e+00
<vert_displacement>
312.21866763963664
</vert_displacement>
</event>
<event>
 4   1200 +8.5212000e+10 1.80483900e-02 7.81665300e-03            nan
       50 -1    0    0    0    0 +4.6576954411e-03 -1.7850590655e-03 +2.8049647635e+00 2.8049736435e+00 4.9935713700e-03 0.0000e+00 0.0000e+00
       11 -1    0    0    0    0 +7.4893925528e-20 -2.8703053346e-20 +4.5102739061e-17 5.1100000000e-04 5.1099893000e-04 0.0000e+00 1.0000e+00
       50  1    1    2    0    0 -4.9268808218e-04 +1.5152071121e-02 +2.4703244544e+00 2.4703760187e+00 4.9935713700e-03 0.0000e+00 0.0000e+00
       11  1    1    2    0    0 +5.1503835233e-03 -1.6937130187e-02 +3.3464030912e-01 3.3510862483e-01 5.1099893000e-04 0.0000e+00 1.0000e+00
<vert_displacement>
380.15607503307467
</vert_displacement>
</event>
<event>
 4   1200 +8.5212000e+10 2.48579200e-02 7.81665300e-03            nan
       50 -1    0    0    0    0 +2.0700900842e-02 -2.3159637148e-02 +8.8754360998e+00 8.8754918621e+00 4.9935713700e-03 0.0000e+00 0.0000e+00
       11 -1    0    0    0    0 +2.2657665792e-19 -2.5348815608e-19 +9.7143919698e-17 5.1100000000e-04 5.1099893000e-04 0.0000e+00 1.0000e+00
       50  1    1    2    0    0 +1.5100637437e-03 -4.8438127454e-03 +8.2512460242e+00 8.2512490951e+00 4.9935713700e-03 0.0000e+00 0.0000e+00
       11  1    1    2    0    0 +1.9190837098e-02 -1.8315824403e-02 +6.2419007563e-01 6.2475376693e-01 5.1099893000e-04 0.0000e+00 1.0000e+00
<vert_displacement>
58.985076096672394
</vert_displacement>
</event>
<event>
 4   1200 +8.5212000e+10 9.95332700e-03 7.81665300e-03            nan
       50 -1    0    0    0    0 -8.4171030585e-03 +7.2987166777e-04 +7.2680498160e+00 7.2680564420e+00 4.9935713700e-03 0.0000e+00 0.0000e+00
       11 -1    0    0    0    0 -3.2143613277e-20 +2.7872668859e-21 +2.7755556863e-17 5.1100000000e-04 5.1099893000e-04 0.0000e+00 1.0000e+00
       50  1    1    2    0    0 -6.7690949166e-03 +9.1894814778e-03 +7.1947671861e+00 7.1947779719e+00 4.9935713700e-03 0.0000e+00 0.0000e+00
       11  1    1    2    0    0 -1.6480081419e-03 -8.4596098100e-03 +7.3282629910e-02 7.3789470085e-02 5.1099893000e-04 0.0000e+00 1.0000e+00
<vert_displacement>
305.45949712210864
</vert_displacement>
</event>
<event>
 4   1200 +8.5212000e+10 1.08209900e-02 7.81665300e-03            nan
       50 -1    0    0    0    0 -9.5380898209e-03 +3.1122342282e-03 +3.0883870921e+00 3.0884074257e+00 4.9935713700e-03 0.0000e+00 0.0000e+00
       11 -1    0    0    0    0 +4.7145507552e-19 -1.5383359254e-19 -1.5265486036e-16 5.1100000000e-04 5.1099893000e-04 0.0000e+00 1.0000e+00
       50  1    1    2    0    0 -4.4070517492e-03 -5.2697609885e-03 +2.9953984612e+00 2.9954105010e+00 4.9935713700e-03 0.0000e+00 0.0000e+00
       11  1    1    2    0    0 -5.1310380716e-03 +8.3819952167e-03 +9.2988630884e-02 9.3507924739e-02 5.1099893000e-04 0.0000e+00 1.0000e+00
<vert_displacement>
257.72707559391432
</vert_displacement>
</event>
<event>
 4   1200 +8.5212000e+10 1.08946300e-02 7.81665300e-03            nan
       50 -1    0    0    0    0 +1.8736339811e-02 +6.5101790635e-02 +2.8921987704e+01 2.8922067475e+01 4.9935713700e-03 0.0000e+00 0.0000e+00
       11 -1    0    0    0    0 -1.3485496099e-19 -4.6857067736e-19 -2.0816624607e-16 5.1100000000e-04 5.1099893000e-04 0.0000e+00 1.0000e+00
       50  1    1    2    0    0 +2.2577060025e-02 +5.6032104671e-02 +2.8829971615e+01 2.8830035338e+01 4.9935713700e-03 0.0000e+00 0.0000e+00
       11  1    1    2    0    0 -3.8407202143e-03 +9.0696859637e-03 +9.2016089285e-02 9.2543136658e-02 5.1099893000e-04 0.0000e+00 1.0000e+00
<vert_displacement>
243.39663695779240
</vert_displacement>
</event>
<event>
 4   1200 +8.5212000e+10 2.20566400e-02 7.81665300e-03            nan
       50 -1    0    0    0    0 +8.5890890809e-02 -1.1194551962e-01 +4.9021934725e+01 4.9022138042e+01 4.9935713700e-03 0.0000e+00 0.0000e+00
       11 -1    0    0    0    0 -9.5558132540e-18 +1.2454527716e-17 -5.4539480167e-15 5.1100000000e-04 5.1099893000e-04 0.0000e+00 1.0000e+00
       50  1    1    2    0    0 +7.7653518585e-02 -1.3105952834e-01 +4.8566033874e+01 4.8566273049e+01 4.9935713700e-03 0.0000e+00 0.0000e+00
       11  1    1    2    0    0 +8.2373722240e-03 +1.9114008725e-02 +4.5590085089e-01 4.5637599257e-01 5.1099893000e-04 0.0000e+00 1.0000e+00
<vert_displacement>
446.65584210002146
</vert_displacement>
</event>
<event>
 4   1200 +8.5212000e+10 3.44177400e-02 7.81665300e-03            nan
       50 -1    0    0    0    0 +1.0309438949e-02 -4.1773357860e-02 +2.2688583527e+01 2.2688624875e+01 4.9935713700e-03 0.0000e+00 0.0000e+00
       11 -1    0    0    0    0 -8.1976705743e-19 +3.3216572522e-18 -1.8041091709e-15 5.1100000000e-04 5.1099893000e-04 0.0000e+00 1.0000e+00
       50  1    1    2    0    0 +4.2963312597e-02 -4.7151830676e-02 +2.1490521255e+01 2.1490616508e+01 4.9935713700e-03 0.0000e+00 0.0000e+00
       11  1    1    2    0    0 -3.2653873648e-02 +5.3784728160e-03 +1.1980622722e+00 1.1985193668e+00 5.1099893000e-04 0.0000e+00 1.0000e+00
<vert_displacement>
217.38596607188470
</vert_displacement>
</event>
<event>
 4   1200 +8.5212000e+10 4.83041800e-02 7.81665300e-03            nan
       50 -1    0    0    0    0 -4.5500547452e-02 +2.2944276722e-02 +1.3578021525e+01 1.3578118066e+01 4.9935713700e-03 0.0000e+00 0.0000e+00
       11 -1    0    0    0    0 +2.5577612470e-19 -1.2897862801e-19 -7.6327295412e-17 5.1100000000e-04 5.1099893000e-04 0.0000e+00 1.0000e+00
       50  1    1    2    0    0 -8.0615868480e-02 +3.5687445154e-02 +1.0713994422e+01 1.0714358307e+01 4.9935713700e-03 0.0000e+00 0.0000e+00
       11  1    1    2    0    0 +3.5115321029e-02 -1.2743168432e-02 +2.8640271023e+00 2.8642707585e+00 5.1099893000e-04 0.0000e+00 1.0000e+00
<vert_displacement>
197.44915240966961
</vert_displacement>
</event>
<event>
 4   1200 +8.5212000e+10 1.56286300e-02 7.81665300e-03            nan
       50 -1    0    0    0    0 -1.5152335162e-02 +1.4016951294e-02 +1.2205295485e+01 1.2205313961e+01 4.9935713700e-03 0.0000e+00 0.0000e+00
       11 -1    0    0    0    0 +2.6704385581e-19 -2.4703391788e-19 -2.1510540341e-16 5.1100000000e-04 5.1099893000e-04 0.0000e+00 1.0000e+00
       50  1    1    2    0    0 -1.2374339590e-02 +2.8361694419e-02 +1.1986755622e+01 1.1986796603e+01 4.9935713700e-03 0.0000e+00 0.0000e+00
       11  1    1    2    0    0 -2.7779955718e-03 -1.4344743125e-02 +2.1853986272e-01 2.1902835805e-01 5.1099893000e-04 0.0000e+00 1.0000e+00
<vert_displacement>
434.09469216587382
</vert_displacement>
</event>
<event>
 4   1200 +8.5212000e+10 3.06639300e-02 7.81665300e-03            nan
       50 -1    0    0    0    0 -1.1041317045e-02 +3.1357975554e-03 +4.9276818529e+00 4.9276977508e+00 4.9935713700e-03 0.0000e+00 0.0000e+00
       11 -1    0    0    0    0 -1.2282715153e-18 +3.4883617590e-19 +5.4817113134e-16 5.1100000000e-04 5.1099893000e-04 0.0000e+00 1.0000e+00
       50  1    1    2    0    0 -3.8602442784e-02 +6.3280490277e-04 +3.7482335062e+00 3.7484356606e+00 4.9935713700e-03 0.0000e+00 0.0000e+00
       11  1    1    2    0    0 +2.7561125739e-02 +2.5029926526e-03 +1.1794483467e+00 1.1797730902e+00 5.1099893000e-04 0.0000e+00 1.0000e+00
<vert_displacement>
383.58312594497670
</vert_displacement>
</event>
<event>
 4   1200 +8.5212000e+10 5.69445600e-02 7.81665300e-03            nan
       50 -1    0    0    0    0 -7.8823183561e-02 -6.6092887347e-02 +2.6749144581e+01 2.6749342835e+01 4.9935713700e-03 0.0000e+00 0.0000e+00
       11 -1    0    0    0    0 +8.1788284789e-18 +6.8579111483e-18 -2.7755370387e-15 5.1100000000e-04 5.1099893000e-04 0.0000e+00 1.0000e+00
       50  1    1    2    0    0 -1.2078596729e-01 -3.6113607335e-02 +2.3103139166e+01 2.3103483671e+01 4.9935713700e-03 0.0000e+00 0.0000e+00
       11  1    1    2    0    0 +4.1962783731e-02 -2.9979280012e-02 +3.6460054146e+00 3.6463701645e+00 5.1099893000e-04 0.0000e+00 1.0000e+00
<vert_displacement>
94.053628601190724
</vert_displacement>
</event>
<event>
 4   1200 +8.5212000e+10 1.30501300e-02 7.81665300e-03            nan
       50 -1    0    0    0    0 -6.0916424096e-03 -1.1194234119e-03 +4.4862671735e+00 4.4862742280e+00 4.9935713700e-03 0.0000e+00 0.0000e+00
       11 -1    0    0    0    0 +1.1306295893e-19 +2.0776879982e-20 -8.3266647494e-17 5.1100000000e-04 5.1099893000e-04 0.0000e+00 1.0000e+00
       50  1    1    2    0    0 -1.5110562705e-03 +1.0150197159e-02 +4.3391692379e+00 4.3391842460e+00 4.9935713700e-03 0.0000e+00 0.0000e+00
       11  1    1    2    0    0 -4.5805861391e-03 -1.1269620571e-02 +1.4709793562e-01 1.4760098205e-01 5.1099893000e-04 0.0000e+00 1.0000e+00
<vert_displacement>
35.514194835632097
</vert_displacement>
</event>
<event>
 4   1200 +8.5212000e+10 1.99589200e-02 7.81665300e-03            nan
       50 -1    0    0    0    0 +2.9971038164e-02 +2.4308090327e-02 +1.2765452962e+01 1.2765512266e+01 4.9935713700e-03 0.0000e+00 0.0000e+00
       11 -1    0    0    0    0 +1.2544245504e-18 +1.0174043726e-18 +5.3429238935e-16 5.1100000000e-04 5.1099893000e-04 0.0000e+00 1.0000e+00
       50  1    1    2    0    0 +4.7714555196e-02 +1.8449436930e-02 +1.2388894895e+01 1.2389001522e+01 4.9935713700e-03 0.0000e+00 0.0000e+00
       11  1    1    2    0    0 -1.7743517032e-02 +5.8586533975e-03 +3.7655806732e-01 3.7702174393e-01 5.1099893000e-04 0.0000e+00 1.0000e+00
<vert_displacement>
153.26490991289572
</vert_displacement>
</event>
<event>
 4   1200 +8.5212000e+10 5.31295900e-03 7.81665300e-03            nan
       50 -1    0    0    0    0 +5.0507975718e-03 +1.3939371724e-03 +9.6237051748e+00 9.6237078967e+00 4.9935713700e-03 0.0000e+00 0.0000e+00
       11 -1    0    0    0    0 -4.0423211581e-19 -1.1156142461e-19 -7.7021710918e-16 5.1100000000e-04 5.1099893000e-04 0.0000e+00 1.0000e+00
       50  1    1    2    0    0 +5.4383019785e-03 +3.1655606332e-03 +9.6204825456e+00 9.6204858995e+00 4.9935713700e-03 0.0000e+00 0.0000e+00
       11  1    1    2    0    0 -3.8750440669e-04 -1.7716234608e-03 +3.2226291449e-03 3.7329971690e-03 5.1099893000e-04 0.0000e+00 1.0000e+00
<vert_displacement>
357.39102296150401
</vert_displacement>
</event>
<event>
 4   1200 +8.5212000e+10 1.04196500e-02 7.81665300e-03            nan
       50 -1    0    0    0    0 +3.4047096039e-02 +1.3262108818e-02 +1.3174341024e+01 1.3174392641e+01 4.9935713700e-03 0.0000e+00 0.0000e+00
       11 -1    0    0    0    0 -4.6624383185e-19 -1.8161244726e-19 -1.8041054762e-16 5.1100000000e-04 5.1099893000e-04 0.0000e+00 -1.0000e+00
       50  1    1    2    0    0 +3.2357413921e-02 +2.2204299239e-02 +1.3091984107e+01 1.3092043876e+01 4.9935713700e-03 0.0000e+00 0.0000e+00
       11  1    1    2    0    0 +1.6896821179e-03 -8.9421904208e-03 +8.2356917031e-02 8.2859765254e-02 5.1099893000e-04 0.0000e+00 -1.0000e+00
<vert_displacement>
78.441861963027577
</vert_displacement>
</event>
<event>
 4   1200 +8.5212000e+10 1.57996600e-02 7.81665300e-03            nan
       50 -1    0    0    0    0 +1.0967475123e-03 -3.6561405274e-03 +1.4444196400e+01 1.4444197767e+01 4.9935713700e-03 0.0000e+00 0.0000e+00
       11 -1    0    0    0    0 +4.7945173805e-20 -1.5983103776e-19 +6.3143932321e-16 5.1100000000e-04 5.1099893000e-04 0.0000e+00 1.0000e+00
       50  1    1    2    0    0 +1.0374484901e-02 +8.1605798135e-03 +1.4220875673e+01 1.4220882676e+01 4.9935713700e-03 0.0000e+00 0.0000e+00
       11  1    1    2    0    0 -9.2777373884e-03 -1.1816720341e-02 +2.2332072659e-01 2.2382609172e-01 5.1099893000e-04 0.0000e+00 1.0000e+00
<vert_displacement>
460.15162882620808
</vert_displacement>
</event>
<event>
 4   1200 +8.5212000e+10 1.25981700e-02 7.81665300e-03            nan
       50 -1    0    0    0    0 -4.2822636106e-02 -6.7129319864e-03 +1.2931291140e+01 1.2931364751e+01 4.9935713700e-03 0.0000e+00 0.0000e+00
       11 -1    0    0    0    0 -2.8722968969e-18 -4.5026498756e-19 +8.6735686525e-16 5.1100000000e-04 5.1099893000e-04 0.0000e+00 1.0000e+00
       50  1    1    2    0    0 -5.3011219865e-02 -1.1210774791e-02 +1.2798995480e+01 1.2799111145e+01 4.9935713700e-03 0.0000e+00 0.0000e+00
       11  1    1    2    0    0 +1.0188583759e-02 +4.4978428045e-03 +1.3229566000e-01 1.3276460599e-01 5.1099893000e-04 0.0000e+00 1.0000e+00
<vert_displacement>
63.090611782343728
</vert_displacement>
</event>
<event>
 4   1200 +8.5212000e+10 1.36439300e-02 7.81665300e-03            nan
       50 -1    0    0    0    0 +2.7877444696e-02 -6.1056085915e-03 +1.0318329898e+01 1.0318370571e+01 4.9935713700e-03 0.0000e+00 0.0000e+00
       11 -1    0    0    0    0 -2.5495941170e-18 +5.5840210303e-19 -9.4368596156e-16 5.1100000000e-04 5.1099893000e-04 0.0000e+00 1.0000e+00
       50  1    1    2    0    0 +3.5709382751e-02 +3.6283152794e-03 +1.0158060833e+01 1.0158125474e+01 4.9935713700e-03 0.0000e+00 0.0000e+00
       11  1    1    2    0    0 -7.8319380549e-03 -9.7339238710e-03 +1.6026906521e-01 1.6075609758e-01 5.1099893000e-04 0.0000e+00 1.0000e+00
<vert_displacement>
397.75410433551741
</vert_displacement>
</event>
<event>
 4   1200 +8.5212000e+10 1.99558700e-02 7.81665300e-03            nan
       50 -1    0    0    0    0 -1.7983392213e-02 -2.1646961191e-02 +9.7716765755e+00 9.7717183762e+00 4.9935713700e-03 0.0000e+00 0.0000e+00
       11 -1    0    0    0    0 -3.7033006894e-19 -4.4577355236e-19 +2.0122708869e-16 5.1100000000e-04 5.1099893000e-04 0.0000e+00 1.0000e+00
       50  1    1    2    0    0 -1.8471790399e-02 -4.0089312448e-02 +9.3915269788e+00 9.3916320354e+00 4.9935713700e-03 0.0000e+00 0.0000e+00
       11  1    1    2    0    0 +4.8839818548e-04 +1.8442351257e-02 +3.8014959666e-01 3.8059734078e-01 5.1099893000e-04 0.0000e+00 1.0000e+00
<vert_displacement>
267.83729407332032
</vert_displacement>
</event>
<event>
 4   1200 +8.5212000e+10 2.15732100e-02 7.81665300e-03            nan
       50 -1    0    0    0    0 -2.1071732062e-02 -5.9866184801e-03 +1.5600079548e+01 1.5600095727e+01 4.9935713700e-03 0.0000e+00 0.0000e+00
       11 -1    0    0    0    0 -8.4354013513e-19 -2.3965533288e-19 +6.2449983566e-16 5.1100000000e-04 5.1099893000e-04 0.0000e+00 1.0000e+00
       50  1    1    2    0    0 -1.1435623069e-02 -2.4758455254e-02 +1.5156449216e+01 1.5156474574e+01 4.9935713700e-03 0.0000e+00 0.0000e+00
       11  1    1    2    0    0 -9.6361089933e-03 +1.8771836774e-02 +4.4363033241e-01 4.4413215308e-01 5.1099893000e-04 0.0000e+00 1.0000e+00
<vert_displacement>
455.89536671190251
</vert_displacement>
</event>
<event>
 4   1200 +8.5212000e+10 2.34396600e-02 7.81665300e-03            nan
       50 -1    0    0    0    0 -8.9679584714e-02 -5.6808718724e-03 +2.6573454259e+01 2.6573606660e+01 4.9935713700e-03 0.0000e+00 0.0000e+00
       11 -1    0    0    0    0 -2.1075401182e-18 -1.3350491548e-19 +6.2449688085e-16 5.1100000000e-04 5.1099893000e-04 0.0000e+00 1.0000e+00
       50  1    1    2    0    0 -6.8965034968e-02 +7.2941491306e-03 +2.6049998862e+01 2.6050091651e+01 4.9935713700e-03 0.0000e+00 0.0000e+00
       11  1    1    2    0    0 -2.0714549747e-02 -1.2975021003e-02 +5.2345539742e-01 5.2402600885e-01 5.1099893000e-04 0.0000e+00 1.0000e+00
<vert_displacement>
130.66072959842984
</vert_displacement>
</event>
<event>
 4   1200 +8.5212000e+10 8.72190200e-03 7.81665300e-03            nan
       50 -1    0    0    0    0 +6.4796569886e-03 -7.2673076156e-03 +7.2411565518e+00 7.2411648195e+00 4.9935713700e-03 0.0000e+00 0.0000e+00
       11 -1    0    0    0    0 -5.4640744254e-19 +6.1282734185e-19 -6.1062211155e-16 5.1100000000e-04 5.1099893000e-04 0.0000e+00 1.0000e+00
       50  1    1    2    0    0 +1.1269712482e-02 -1.2485234160e-02 +7.1907565658e+00 7.1907779698e+00 4.9935713700e-03 0.0000e+00 0.0000e+00
       11  1    1    2    0    0 -4.7900554930e-03 +5.2179265443e-03 +5.0399986040e-02 5.0897849678e-02 5.1099893000e-04 0.0000e+00 1.0000e+00
<vert_displacement>
223.00683749884530
</vert_displacement>
</event>
<event>
 4   1200 +8.5212000e+10 1.47508800e-02 7.81665300e-03            nan
       50 -1    0    0    0    0 -1.2414964739e-03 +2.0348007632e-04 +2.2171512824e+00 2.2171572627e+00 4.9935713700e-03 0.0000e+00 0.0000e+00
       11 -1    0    0    0    0 -6.0224338519e-20 +9.8707110778e-21 +1.0755283820e-16 5.1100000000e-04 5.1099893000e-04 0.0000e+00 1.0000e+00
       50  1    1    2    0    0 +9.4318194627e-03 -8.8272749777e-03 +2.0088184301e+00 2.0088661730e+00 4.9935713700e-03 0.0000e+00 0.0000e+00
       11  1    1    2    0    0 -1.0673315937e-02 +9.0307550540e-03 +2.0833285229e-01 2.0880208972e-01 5.1099893000e-04 0.0000e+00 1.0000e+00
<vert_displacement>
259.97523678288115
</vert_displacement>
</event>
<event>
 4   1200 +8.5212000e+10 6.87372300e-03 7.81665300e-03            nan
       50 -1    0    0    0    0 +9.3014807642e-02 -4.1824559842e-02 +6.7604980077e+01 6.7605057186e+01 4.9935713700e-03 0.0000e+00 0.0000e+00
       11 -1    0    0    0    0 -3.0168258362e-18 +1.3565303839e-18 -2.1926879787e-15 5.1100000000e-04 5.1099893000e-04 0.0000e+00 1.0000e+00
       50  1    1    2    0    0 +8.8468909949e-02 -4.3196465644e-02 +6.7583146230e+01 6.7583218123e+01 4.9935713700e-03 0.0000e+00 0.0000e+00
       11  1    1    2    0    0 +4.5458976924e-03 +1.3719058015e-03 +2.1833846833e-02 2.2350062613e-02 5.1099893000e-04 0.0000e+00 1.0000e+00
<vert_displacement>
121.80076242640138
</vert_displacement>
</event>
<event>
 4   1200 +8.5212000e+10 2.46148700e-02 7.81665300e-03            nan
       50 -1    0    0    0    0 +3.2115420486e-02 +3.6837022683e-03 +1.5026694999e+01 1.5026730599e+01 4.9935713700e-03 0.0000e+00 0.0000e+00
       11 -1    0    0    0    0 -7.1183710262e-19 -8.1649124001e-20 -3.3306613670e-16 5.1100000000e-04 5.1099893000e-04 0.0000e+00 1.0000e+00
       50  1    1    2    0    0 +5.4028905305e-02 +1.0150640165e-02 +1.4434830083e+01 1.4434935630e+01 4.9935713700e-03 0.0000e+00 0.0000e+00
       11  1    1    2    0    0 -2.1913484819e-02 -6.4669378972e-03 +5.9186491517e-01 5.9230596910e-01 5.1099893000e-04 0.0000e+00 1.0000e+00
<vert_displacement>
92.880910975782840
</vert_displacement>
</event>
<event>
 4   1200 +8.5212000e+10 7.48229300e-03 7.81665300e-03            nan
       50 -1    0    0    0    0 +2.9418095471e-02 -1.8904364504e-02 +2.9217913754e+01 2.9217935106e+01 4.9935713700e-03 0.0000e+00 0.0000e+00
       11 -1    0    0    0    0 +1.0759101564e-18 -6.9139070513e-19 +1.0685888959e-15 5.1100000000e-04 5.1099893000e-04 0.0000e+00 1.0000e+00
       50  1    1    2    0    0 +2.6297918410e-02 -2.3521884983e-02 +2.9187501085e+01 2.9187522838e+01 4.9935713700e-03 0.0000e+00 0.0000e+00
       11  1    1    2    0    0 +3.1201770609e-03 +4.6175204793e-03 +3.0412668757e-02 3.0923268603e-02 5.1099893000e-04 0.0000e+00 1.0000e+00
<vert_displacement>
115.29759379459593
</vert_displacement>
</event>
<event>
 4   1200 +8.5212000e+10 1.71959400e-02 7.81665300e-03            nan
       50 -1    0    0    0    0 +6.4622804504e-02 +8.3012227113e-02 +3.9919160453e+01 3.9919299384e+01 4.9935713700e-03 0.0000e+00 0.0000e+00
       11 -1    0    0    0    0 -8.3123699073e-19 -1.0677783855e-18 -5.1347636584e-16 5.1100000000e-04 5.1099893000e-04 0.0000e+00 1.0000e+00
       50  1    1    2    0    0 +7.2137466007e-02 +9.6866488333e-02 +3.9652396073e+01 3.9652580322e+01 4.9935713700e-03 0.0000e+00 0.0000e+00
       11  1    1    2    0    0 -7.5146615025e-03 -1.3854261220e-02 +2.6676437967e-01 2.6723006207e-01 5.1099893000e-04 0.0000e+00 1.0000e+00
<vert_displacement>
33.340912604046380
</vert_displacement>
</event>
<event>
 4   1200 +8.5212000e+10 2.88079000e-02 7.81665300e-03            nan
       50 -1    0    0    0    0 -7.7234908611e-02 +5.5535435084e-02 +4.2882465083e+01 4.2882570888e+01 4.9935713700e-03 0.0000e+00 0.0000e+00
       11 -1    0    0    0    0 +8.7732435348e-18 -6.3083637381e-18 -4.8710915350e-15 5.1100000000e-04 5.1099893000e-04 0.0000e+00 1.0000e+00
       50  1    1    2    0    0 -8.1802709114e-02 +8.2223086915e-02 +4.2079746340e+01 4.2079906479e+01 4.9935713700e-03 0.0000e+00 0.0000e+00
       11  1    1    2    0    0 +4.5678005031e-03 -2.6687651831e-02 +8.0271874275e-01 8.0317540839e-01 5.1099893000e-04 0.0000e+00 1.0000e+00
<vert_displacement>
255.85896146850956
</vert_displacement>
</event>
<event>
 4   1200 +8.5212000e+10 1.89702800e-02 7.81665300e-03            nan
       50 -1    0    0    0    0 +9.8909056109e-03 +8.7623321378e-03 +7.0100858951e+00 7.0101001278e+00 4.9935713700e-03 0.0000e+00 0.0000e+00
       11 -1    0    0    0    0 -1.0867387983e-18 -9.6273957837e-19 -7.7021585497e-16 5.1100000000e-04 5.1099893000e-04 0.0000e+00 1.0000e+00
       50  1    1    2    0    0 -2.0934104152e-03 +2.2569886253e-02 +6.6653209049e+00 6.6653613168e+00 4.9935713700e-03 0.0000e+00 0.0000e+00
       11  1    1    2    0    0 +1.1984316026e-02 -1.3807554115e-02 +3.4476499019e-01 3.4524981095e-01 5.1099893000e-04 0.0000e+00 1.0000e+00
<vert_displacement>
416.28324436211176
</vert_displacement>
</event>
<event>
 4   1200 +8.5212000e+10 1.68969100e-02 7.81665300e-03            nan
       50 -1    0    0    0    0 +5.5455541985e-04 -9.8274899909e-03 +4.5775579876e+00 4.5775712941e+00 4.9935713700e-03 0.0000e+00 0.0000e+00
       11 -1    0    0    0    0 -4.7074787658e-20 +8.3423042671e-19 -3.8857716027e-16 5.1100000000e-04 5.1099893000e-04 0.0000e+00 1.0000e+00
       50  1    1    2    0    0 +5.3569461345e-03 -2.4646341669e-02 +4.3063916541e+00 4.3064684085e+00 4.9935713700e-03 0.0000e+00 0.0000e+00
       11  1    1    2    0    0 -4.8023907147e-03 +1.4818851678e-02 +2.7116633342e-01 2.7161388554e-01 5.1099893000e-04 0.0000e+00 1.0000e+00
<vert_displacement>
341.94348829833740
</vert_displacement>
</event>
<event>
 4   1200 +8.5212000e+10 1.24152000e-02 7.81665300e-03            nan
       50 -1    0    0    0    0 +6.3007499114e-02 +1.4421317740e-03 +2.0088426680e+01 2.0088526164e+01 4.9935713700e-03 0.0000e+00 0.0000e+00
       11 -1    0    0    0    0 +2.1763785031e-18 +4.9813508483e-20 +6.9388597550e-16 5.1100000000e-04 5.1099893000e-04 0.0000e+00 1.0000e+00
       50  1    1    2    0    0 +5.2325887306e-02 -3.4115387983e-03 +1.9961229616e+01 1.9961299115e+01 4.9935713700e-03 0.0000e+00 0.0000e+00
       11  1    1    2    0    0 +1.0681611807e-02 +4.8536705724e-03 +1.2719706396e-01 1.2773804895e-01 5.1099893000e-04 0.0000e+00 1.0000e+00
<vert_displacement>
462.81690677572283
</vert_displacement>
</event>
<event>
 4   1200 +8.5212000e+10 8.17490700e-03 7.81665300e-03            nan
       50 -1    0    0    0    0 -2.0155026290e-02 +1.6713481264e-02 +1.2520374073e+01 1.2520402446e+01 4.9935713700e-03 0.0000e+00 0.0000e+00
       11 -1    0    0    0    0 +1.7648688949e-18 -1.4635110261e-18 -1.0963428395e-15 5.1100000000e-04 5.1099893000e-04 0.0000e+00 1.0000e+00
       50  1    1    2    0    0 -2.0394736567e-02 +1.0193309714e-02 +1.2479253719e+01 1.2479275547e+01 4.9935713700e-03 0.0000e+00 0.0000e+00
       11  1    1    2    0    0 +2.3971027690e-04 +6.5201715500e-03 +4.1120353637e-02 4.1637899817e-02 5.1099893000e-04 0.0000e+00 1.0000e+00
<vert_displacement>
271.36903736004058
</vert_displacement>
</event>
<event>
 4   1200 +8.5212000e+10 9.21712100e-03 7.81665300e-03            nan
       50 -1    0    0    0    0 +7.3561070859e-02 +2.1539578605e-02 +3.5782487156e+01 3.5782569600e+01 4.9935713700e-03 0.0000e+00 0.0000e+00
       11 -1    0    0    0    0 -1.3637182791e-17 -3.9931334231e-18 -6.6335673527e-15 5.1100000000e-04 5.1099893000e-04 0.0000e+00 -1.0000e+00
       50  1    1    2    0    0 +6.7565222638e-02 +1.6453952356e-02 +3.5723677249e+01 3.5723745281e+01 4.9935713700e-03 0.0000e+00 0.0000e+00
       11  1    1    2    0    0 +5.9958482202e-03 +5.0856262489e-03 +5.8809907224e-02 5.9335319143e-02 5.1099893000e-04 0.0000e+00 -1.0000e+00
<vert_displacement>
386.22265257999055
</vert_displacement>
</event>
<event>
 4   1200 +8.5212000e+10 1.01058700e-02 7.81665300e-03            nan
       50 -1    0    0    0    0 +5.6178429836e-02 -4.2223224747e-02 +3.6075956569e+01 3.6076025365e+01 4.9935713700e-03 0.0000e+00 0.0000e+00
       11 -1    0    0    0    0 -1.0913461939e-17 +8.2024641410e-18 -7.0082695455e-15 5.1100000000e-04 5.1099893000e-04 0.0000e+00 1.0000e+00
       50  1    1    2    0    0 +4.8341754488e-02 -3.7937895377e-02 +3.6000282443e+01 3.6000335236e+01 4.9935713700e-03 0.0000e+00 0.0000e+00
       11  1    1    2    0    0 +7.8366753484e-03 -4.2853293699e-03 +7.5674126008e-02 7.6201128570e-02 5.1099893000e-04 0.0000e+00 1.0000e+00
<vert_displacement>
33.117472632191053
</vert_displacement>
</event>
<event>
 4   1200 +8.5212000e+10 1.13205800e-02 7.81665300e-03            nan
       50 -1    0    0    0    0 +1.3581034028e-02 +5.0009260270e-03 +1.2780741113e+01 1.2780750283e+01 4.9935713700e-03 0.0000e+00 0.0000e+00
       11 -1    0    0    0    0 -1.4378096019e-18 -5.2944270999e-19 -1.3530834438e-15 5.1100000000e-04 5.1099893000e-04 0.0000e+00 1.0000e+00
       50  1    1    2    0    0 +3.9156479753e-03 +8.4077875575e-03 +1.2678935463e+01 1.2678939839e+01 4.9935713700e-03 0.0000e+00 0.0000e+00
       11  1    1    2    0    0 +9.6653860524e-03 -3.4068615305e-03 +1.0180565023e-01 1.0232144414e-01 5.1099893000e-04 0.0000e+00 1.0000e+00
<vert_displacement>
471.16485643513641
</vert_displacement>
</event>
<event>
 4   1200 +8.5212000e+10 7.59325200e-03 7.81665300e-03            nan
       50 -1    0    0    0    0 +4.3448018400e-02 -8.1843640900e-03 +1.5039389117e+01 1.5039454932e+01 4.9935713700e-03 0.0000e+00 0.0000e+00
       11 -1    0    0    0    0 +4.4101242869e-19 -8.3074128983e-20 +1.5265500625e-16 5.1100000000e-04 5.1099893000e-04 0.0000e+00 1.0000e+00
       50  1    1    2    0    0 +3.7635059479e-02 -8.1597435696e-03 +1.5007318792e+01 1.5007369031e+01 4.9935713700e-03 0.0000e+00 0.0000e+00
       11  1    1    2    0    0 +5.8129589203e-03 -2.4620520486e-05 +3.2070325116e-02 3.2596901242e-02 5.1099893000e-04 0.0000e+00 1.0000e+00
<vert_displacement>
110.57454443791283
</vert_displacement>
</event>
<event>
 4   1200 +8.5212000e+10 1.06878100e-02 7.81665300e-03            nan
       50 -1    0    0    0    0 -1.7954587198e-02 +3.8287959691e-02 +1.8399474913e+01 1.8399524188e+01 4.9935713700e-03 0.0000e+00 0.0000e+00
       11 -1    0    0    0    0 -2.0313293807e-19 +4.3317875587e-19 +2.0816626730e-16 5.1100000000e-04 5.1099893000e-04 0.0000e+00 1.0000e+00
       50  1    1    2    0    0 -8.4824556149e-03 +3.9195172400e-02 +1.8311688730e+01 1.8311733323e+01 4.9935713700e-03 0.0000e+00 0.0000e+00
       11  1    1    2    0    0 -9.4721315834e-03 -9.0721270919e-04 +8.7786182397e-02 8.8301864371e-02 5.1099893000e-04 0.0000e+00 1.0000e+00
<vert_displacement>
297.48649492079437
</vert_displacement>
</event>
<event>
 4   1200 +8.5212000e+10 1.86749900e-02 7.81665300e-03            nan
       50 -1    0    0    0    0 +6.2106413032e-02 -5.5232596406e-02 +2.1342220720e+01 2.1342383139e+01 4.9935713700e-03 0.0000e+00 0.0000e+00
       11 -1    0    0    0    0 +1.0015334774e-17 -8.9068570605e-18 +3.4416652787e-15 5.1100000000e-04 5.1099893000e-04 0.0000e+00 1.0000e+00
       50  1    1    2    0    0 +4.3424023669e-02 -5.1418752984e-02 +2.1020571244e+01 2.1020679577e+01 4.9935713700e-03 0.0000e+00 0.0000e+00
       11  1    1    2    0    0 +1.8682389363e-02 -3.8138434216e-03 +3.2164947576e-01 3.2221456120e-01 5.1099893000e-04 0.0000e+00 1.0000e+00
<vert_displacement>
170.09934125484719
</vert_displacement>
</event>
<event>
 4   1200 +8.5212000e+10 2.34079800e-02 7.81665300e-03            nan
       50 -1    0    0    0    0 +6.9590454545e-02 +1.1078862873e-02 +3.2881372756e+01 3.2881448642e+01 4.9935713700e-03 0.0000e+00 0.0000e+00
       11 -1    0    0    0    0 -4.1119423191e-19 -6.5462491073e-20 -1.9428858315e-16 5.1100000000e-04 5.1099893000e-04 0.0000e+00 1.0000e+00
       50  1    1    2    0    0 +7.9019510871e-02 +3.1204547114e-02 +3.2361368584e+01 3.2361480487e+01 4.9935713700e-03 0.0000e+00 0.0000e+00
       11  1    1    2    0    0 -9.4290563260e-03 -2.0125684242e-02 +5.2000417205e-01 5.2047915457e-01 5.1099893000e-04 0.0000e+00 1.0000e+00
<vert_displacement>
474.56459899195687
</vert_displacement>
</event>
<event>
 4   1200 +8.5212000e+10 5.55049200e-03 7.81665300e-03            nan
       50 -1    0    0    0    0 +3.2772085429e-03 -2.0714442904e-03 +1.0604905561e+01 1.0604907445e+01 4.9935713700e-03 0.0000e+00 0.0000e+00
       11 -1    0    0    0    0 +3.4523384651e-19 -2.1821396803e-19 +1.1171618439e-15 5.1100000000e-04 5.1099893000e-04 0.0000e+00 1.0000e+00
       50  1    1    2    0    0 +9.0459805610e-04 -2.5716775941e-03 +1.0599156991e+01 1.0599158518e+01 4.9935713700e-03 0.0000e+00 0.0000e+00
       11  1    1    2    0    0 +2.3726104868e-03 +5.0023330369e-04 +5.7485690839e-03 6.2599265410e-03 5.1099893000e-04 0.0000e+00 1.0000e+00
<vert_displacement>
180.31730962768984
</vert_displacement>
</event>
<event>
 4   1200 +8.5212000e+10 8.26611300e-03 7.81665300e-03            nan
       50 -1    0    0    0    0 +1.7289200475e-02 -1.9987029821e-03 +1.1413492404e+01 1.1413506767e+01 4.9935713700e-03 0.0000e+00 0.0000e+00
       11 -1    0    0    0    0 +1.7763674346e-18 -2.0535541213e-19 +1.1726717064e-15 5.1100000000e-04 5.1099893000e-04 0.0000e+00 1.0000e+00
       50  1    1    2    0    0 +2.3745454085e-02 -1.0575676368e-03 +1.1370862578e+01 1.1370888518e+01 4.9935713700e-03 0.0000e+00 0.0000e+00
       11  1    1    2    0    0 -6.4562536105e-03 -9.4113534529e-04 +4.2629825957e-02 4.3129249094e-02 5.1099893000e-04 0.0000e+00 1.0000e+00
<vert_displacement>
476.38736917947529
</vert_displacement>
</event>
<event>
 4   1200 +8.5212000e+10 1.55562900e-02 7.81665300e-03            nan
       50 -1    0    0    0    0 +1.8607690001e-02 +3.5501717430e-02 +2.1916235160e+01 2.1916272382e+01 4.9935713700e-03 0.0000e+00 0.0000e+00
       11 -1    0    0    0    0 -9.8974955011e-19 -1.8883487877e-18 -1.1657322262e-15 5.1100000000e-04 5.1099893000e-04 0.0000e+00 1.0000e+00
       50  1    1    2    0    0 +4.7842059465e-03 +4.0719819275e-02 +2.1701741683e+01 2.1701780987e+01 4.9935713700e-03 0.0000e+00 0.0000e+00
       11  1    1    2    0    0 +1.3823484054e-02 -5.2181018449e-03 +2.1449347700e-01 2.1500239555e-01 5.1099893000e-04 0.0000e+00 1.0000e+00
<vert_displacement>
375.94646505223858
</vert_displacement>
</event>
<event>
 4   1200 +8.5212000e+10 5.97848000e-03 7.81665300e-03            nan
       50 -1    0    0    0    0 +9.3318497715e-03 +3.8991385829e-03 +3.4452163507e+00 3.4452348143e+00 4.9935713700e-03 0.0000e+00 0.0000e+00
       11 -1    0    0    0    0 +4.0408997368e-19 +1.6884142436e-19 +1.4918557612e-16 5.1100000000e-04 5.1099893000e-04 0.0000e+00 -1.0000e+00
       50  1    1    2    0    0 +6.1942873605e-03 +4.9555907022e-03 +3.4346152919e+00 3.4346280827e+00 4.9935713700e-03 0.0000e+00 0.0000e+00
       11  1    1    2    0    0 +3.1375624110e-03 -1.0564521193e-03 +1.0601058740e-02 1.1117731571e-02 5.1099893000e-04 0.0000e+00 -1.0000e+00
<vert_displacement>
295.96083729057358
</vert_displacement>
</event>
<event>
 4   1200 +8.5212000e+10 7.78236600e-03 7.81665300e-03            nan
       50 -1    0    0    0    0 -2.7143483992e-02 -4.0413054301e-02 +1.5675028937e+01 1.5675105330e+01 4.9935713700e-03 0.0000e+00 0.0000e+00
       11 -1    0    0    0    0 -1.6341213359e-18 -2.4329903376e-18 +9.4368501974e-16 5.1100000000e-04 5.1099893000e-04 0.0000e+00 1.0000e+00
       50  1    1    2    0    0 -2.5601736481e-02 -3.4540660640e-02 +1.5640104937e+01 1.5640164829e+01 4.9935713700e-03 0.0000e+00 0.0000e+00
       11  1    1    2    0    0 -1.5417475106e-03 -5.8723936613e-03 +3.4924000195e-02 3.5451500705e-02 5.1099893000e-04 0.0000e+00 1.0000e+00
<vert_displacement>
125.22307825729000
</vert_displacement>
</event>
<event>
 4   1200 +8.5212000e+10 1.24985500e-02 7.81665300e-03            nan
       50 -1    0    0    0    0 -3.1221430849e-02 -3.4096070754e-02 +1.3570117259e+01 1.3570196928e+01 4.9935713700e-03 0.0000e+00 0.0000e+00
       11 -1    0    0    0    0 +8.9401530961e-19 +9.7632966915e-19 -3.8857580362e-16 5.1100000000e-04 5.1099893000e-04 0.0000e+00 1.0000e+00
       50  1    1    2    0    0 -1.9503259084e-02 -3.2839608929e-02 +1.3440447966e+01 1.3440503164e+01 4.9935713700e-03 0.0000e+00 0.0000e+00
       11  1    1    2    0    0 -1.1718171766e-02 -1.2564618247e-03 +1.2966929206e-01 1.3020476439e-01 5.1099893000e-04 0.0000e+00 1.0000e+00
<vert_displacement>
373.55213580692731
</vert_displacement>
</event>
<event>
 4   1200 +8.5212000e+10 2.18643900e-02 7.81665300e-03            nan
       50 -1    0    0    0    0 -6.1283622689e-02 +1.3302096357e-02 +2.3896996975e+01 2.3897079779e+01 4.9935713700e-03 0.0000e+00 0.0000e+00
       11 -1    0    0    0    0 +1.8862346498e-18 -4.0942219083e-19 -7.3552022125e-16 5.1100000000e-04 5.1099893000e-04 0.0000e+00 1.0000e+00
       50  1    1    2    0    0 -3.9362797079e-02 +8.3540091101e-03 +2.3445128007e+01 2.3445163071e+01 4.9935713700e-03 0.0000e+00 0.0000e+00
       11  1    1    2    0    0 -2.1920825610e-02 +4.9480872470e-03 +4.5186896808e-01 4.5242770869e-01 5.1099893000e-04 0.0000e+00 1.0000e+00
<vert_displacement>
308.96325993824047
</vert_displacement>
</event>
<event>
 4   1200 +8.5212000e+10 1.06599100e-02 7.81665300e-03            nan
       50 -1    0    0    0    0 +3.2530902946e-02 +7.3174001019e-03 +5.4086594245e+01 5.4086604754e+01 4.9935713700e-03 0.0000e+00 0.0000e+00
       11 -1    0    0    0    0 +8.3469275295e-21 +1.8775319104e-21 +1.3877785171e-17 5.1100000000e-04 5.1099893000e-04 0.0000e+00 1.0000e+00
       50  1    1    2    0    0 +3.7921065581e-02 +1.4991837211e-02 +5.3999660816e+01 5.3999676443e+01 4.9935713700e-03 0.0000e+00 0.0000e+00
       11  1    1    2    0    0 -5.3901626357e-03 -7.6744371089e-03 +8.6933429213e-02 8.7439310798e-02 5.1099893000e-04 0.0000e+00 1.0000e+00
<vert_displacement>
122.84042040310355
</vert_displacement>
</event>
<event>
 4   1200 +8.5212000e+10 1.02056600e-02 7.81665300e-03            nan
       50 -1    0    0    0    0 -4.4612916561e-02 -1.0957261857e-02 +1.3144499168e+01 1.3144580392e+01 4.9935713700e-03 0.0000e+00 0.0000e+00
       11 -1    0    0    0    0 -4.8749988001e-18 -1.1973357163e-18 +1.4363422661e-15 5.1100000000e-04 5.1099893000e-04 0.0000e+00 1.0000e+00
       50  1    1    2    0    0 -3.9488665280e-02 -1.8349076696e-02 +1.3066528942e+01 1.3066602449e+01 4.9935713700e-03 0.0000e+00 0.0000e+00
       11  1    1    2    0    0 -5.1242512807e-03 +7.3918148392e-03 +7.7970226164e-02 7.8488942952e-02 5.1099893000e-04 0.0000e+00 1.0000e+00
<vert_displacement>
239.88461963783914
</vert_displacement>
</event>
<event>
 4   1200 +8.5212000e+10 1.10928600e-02 7.81665300e-03            nan
       50 -1    0    0    0    0 -1.0408071027e-01 -1.1019853469e-02 +3.1707699463e+01 3.1707872593e+01 4.9935713700e-03 0.0000e+00 0.0000e+00
       11 -1    0    0    0    0 +1.3210564899e-18 +1.3987076860e-19 -4.0245365394e-16 5.1100000000e-04 5.1099893000e-04 0.0000e+00 1.0000e+00
       50  1    1    2    0    0 -9.5042242868e-02 -6.2922156826e-03 +3.1611432212e+01 3.1611576108e+01 4.9935713700e-03 0.0000e+00 0.0000e+00
       11  1    1    2    0    0 -9.0384674049e-03 -4.7276377860e-03 +9.6267251007e-02 9.6807485188e-02 5.1099893000e-04 0.0000e+00 1.0000e+00
<vert_displacement>
294.73614325669683
</vert_displacement>
</event>
<event>
 4   1200 +8.5212000e+10 1.23707500e-02 7.81665300e-03            nan
       50 -1    0    0    0    0 -3.5398060450e-02 -1.1380982324e-02 +1.1677242550e+01 1.1677302816e+01 4.9935713700e-03 0.0000e+00 0.0000e+00
       11 -1    0    0    0    0 +2.4399740090e-18 +7.8448651460e-19 -8.0490761234e-16 5.1100000000e-04 5.1099893000e-04 0.0000e+00 1.0000e+00
       50  1    1    2    0    0 -3.7172284121e-02 -2.2367860705e-02 +1.1550500131e+01 1.1550582683e+01 4.9935713700e-03 0.0000e+00 0.0000e+00
       11  1    1    2    0    0 +1.7742236710e-03 +1.0986878381e-02 +1.2674241844e-01 1.2723113266e-01 5.1099893000e-04 0.0000e+00 1.0000e+00
<vert_displacement>
262.28340314851653
</vert_displacement>
</event>
<event>
 4   1200 +8.5212000e+10 3.42094100e-02 7.81665300e-03            nan
       50 -1    0    0    0    0 -1.5447069203e-02 -8.6059094278e-03 +5.3084449720e+00 5.3084767712e+00 4.9935713700e-03 0.0000e+00 0.0000e+00
       11 -1    0    0    0    0 +1.7162697025e-18 +9.5617242462e-19 -5.8980270969e-16 5.1100000000e-04 5.1099893000e-04 0.0000e+00 1.0000e+00
       50  1    1    2    0    0 -4.3980908401e-02 +4.2849788550e-04 +3.6949930147e+00 3.6952581531e+00 4.9935713700e-03 0.0000e+00 0.0000e+00
       11  1    1    2    0    0 +2.8533839198e-02 -9.0344073133e-03 +1.6134519573e+00 1.6137296180e+00 5.1099893000e-04 0.0000e+00 1.0000e+00
<vert_displacement>
159.27887411221366
</vert_displacement>
</event>
<event>
 4   1200 +8.5212000e+10 2.20296400e-02 7.81665300e-03            nan
       50 -1    0    0    0    0 +7.8124791763e-02 -2.6951547787e-02 +2.2767646835e+01 2.2767797372e+01 4.9935713700e-03 0.0000e+00 0.0000e+00
       11 -1    0    0    0    0 +2.7619518426e-18 -9.5282016618e-19 +8.0490639024e-16 5.1100000000e-04 5.1099893000e-04 0.0000e+00 1.0000e+00
       50  1    1    2    0    0 +5.9265181636e-02 -3.9123438725e-02 +2.2307930628e+01 2.2308044218e+01 4.9935713700e-03 0.0000e+00 0.0000e+00
       11  1    1    2    0    0 +1.8859610126e-02 +1.2171890938e-02 +4.5971620689e-01 4.6026415440e-01 5.1099893000e-04 0.0000e+00 1.0000e+00
<vert_displacement>
145.84512231203809
</vert_displacement>
</event>
<event>
 4   1200 +8.5212000e+10 2.64775200e-02 7.81665300e-03            nan
       50 -1    0    0    0    0 +2.9820201796e-02 +1.7620890296e-02 +1.4566280319e+01 1.4566322357e+01 4.9935713700e-03 0.0000e+00 0.0000e+00
       11 -1    0    0    0    0 -2.9831165989e-19 -1.7627369086e-19 -1.4571636001e-16 5.1100000000e-04 5.1099893000e-04 0.0000e+00 1.0000e+00
       50  1    1    2    0    0 +5.4370478510e-02 +1.8022086056e-02 +1.3871440813e+01 1.3871559973e+01 4.9935713700e-03 0.0000e+00 0.0000e+00
       11  1    1    2    0    0 -2.4550276714e-02 -4.0119576018e-04 +6.9483950674e-01 6.9527338385e-01 5.1099893000e-04 0.0000e+00 1.0000e+00
<vert_displacement>
319.03687910938572
</vert_displacement>
</event>
<event>
 4   1200 +8.5212000e+10 3.53217200e-02 7.81665300e-03            nan
       50 -1    0    0    0    0 +5.7556369479e-02 -3.5544155712e-03 +1.8889932356e+01 1.8890021035e+01 4.9935713700e-03 0.0000e+00 0.0000e+00
       11 -1    0    0    0    0 +7.1460806436e-18 -4.4130893840e-19 +2.3453352112e-15 5.1100000000e-04 5.1099893000e-04 0.0000e+00 1.0000e+00
       50  1    1    2    0    0 +3.7679322978e-02 +2.7796411063e-02 +1.7606237336e+01 1.7606300306e+01 4.9935713700e-03 0.0000e+00 0.0000e+00
       11  1    1    2    0    0 +1.9877046501e-02 -3.1350826634e-02 +1.2836950195e+00 1.2842317297e+00 5.1099893000e-04 0.0000e+00 1.0000e+00
<vert_displacement>
35.239175248764063
</vert_displacement>
</event>
<event>
 4   1200 +8.5212000e+10 6.57480500e-03 7.81665300e-03            nan
       50 -1    0    0    0    0 +6.2490818248e-04 -1.0787499478e-02 +1.3778006043e+01 1.3778011185e+01 4.9935713700e-03 0.0000e+00 0.0000e+00
       11 -1    0    0    0    0 +1.9827159644e-20 -3.4226704067e-19 +4.3715018151e-16 5.1100000000e-04 5.1099893000e-04 0.0000e+00 1.0000e+00
       50  1    1    2    0    0 +1.7295157970e-03 -1.4905094454e-02 +1.3760080203e+01 1.3760089290e+01 4.9935713700e-03 0.0000e+00 0.0000e+00
       11  1    1    2    0    0 -1.1046076145e-03 +4.1175949764e-03 +1.7925840851e-02 1.8432895500e-02 5.1099893000e-04 0.0000e+00 1.0000e+00
<vert_displacement>
113.97874135263308
</vert_displacement>
</event>
<event>
 4   1200 +8.5212000e+10 8.13484600e-03 7.81665300e-03            nan
       50 -1    0    0    0    0 +1.9912170101e-02 +1.4959284032e-02 +7.8212707464e+00 7.8213119935e+00 4.9935713700e-03 0.0000e+00 0.0000e+00
       11 -1    0    0    0    0 +1.3779197393e-18 +1.0351806282e-18 +5.4123098052e-16 5.1100000000e-04 5.1099893000e-04 0.0000e+00 1.0000e+00
       50  1    1    2    0    0 +2.3914518717e-02 +1.9819653473e-02 +7.7806851409e+00 7.7807487378e+00 4.9935713700e-03 0.0000e+00 0.0000e+00
       11  1    1    2    0    0 -4.0023486163e-03 -4.8603694413e-03 +4.0585605504e-02 4.1074255679e-02 5.1099893000e-04 0.0000e+00 1.0000e+00
<vert_displacement>
414.53807114653301
</vert_displacement>
</event>
<event>
 4   1200 +8.5212000e+10 5.54257900e-03 7.81665300e-03            nan
       50 -1    0    0    0    0 +5.5325563345e-03 -1.0505730885e-03 +1.8963890912e+00 1.8964040271e+00 4.9935713700e-03 0.0000e+00 0.0000e+00
       11 -1    0    0    0    0 -2.3280085393e-19 +4.4206384416e-20 -7.9796928062e-17 5.1100000000e-04 5.1099893000e-04 0.0000e+00 1.0000e+00
       50  1    1    2    0    0 +4.0217147061e-03 +8.3712652745e-04 +1.8907158444e+00 1.8907269013e+00 4.9935713700e-03 0.0000e+00 0.0000e+00
       11  1    1    2    0    0 +1.5108416284e-03 -1.8876996160e-03 +5.6732467567e-03 6.1881258015e-03 5.1099893000e-04 0.0000e+00 1.0000e+00
<vert_displacement>
92.924073266236675
</vert_displacement>
</event>
<event>
 4   1200 +8.5212000e+10 7.20938900e-03 7.81665300e-03            nan
       50 -1    0    0    0    0 +3.6226867524e-03 +3.7458021559e-04 +1.1803512103e+00 1.1803673918e+00 4.9935713700e-03 0.0000e+00 0.0000e+00
       11 -1    0    0    0    0 +3.1944711637e-20 +3.3030338502e-21 +1.0408291310e-17 5.1100000000e-04 5.1099893000e-04 0.0000e+00 1.0000e+00
       50  1    1    2    0    0 +1.2788715450e-03 -4.3168649961e-03 +1.1532554867e+00 1.1532750861e+00 4.9935713700e-03 0.0000e+00 0.0000e+00
       11  1    1    2    0    0 +2.3438152074e-03 +4.6914452117e-03 +2.7095723675e-02 2.7603305767e-02 5.1099893000e-04 0.0000e+00 1.0000e+00
<vert_displacement>
54.140907457043042
</vert_displacement>
</event>
<event>
 4   1200 +8.5212000e+10 3.81334000e-02 7.81665300e-03            nan
       50 -1    0    0    0    0 +2.7567224866e-02 -5.7431315800e-03 +1.7676759316e+01 1.7676782451e+01 4.9935713700e-03 0.0000e+00 0.0000e+00
       11 -1    0    0    0    0 -3.0732538636e-18 +6.4025673251e-19 -1.9706433683e-15 5.1100000000e-04 5.1099893000e-04 0.0000e+00 1.0000e+00
       50  1    1    2    0    0 -2.9001698100e-03 -3.0559139383e-02 +1.6145461233e+01 1.6145491186e+01 4.9935713700e-03 0.0000e+00 0.0000e+00
       11  1    1    2    0    0 +3.0467394677e-02 +2.4816007803e-02 +1.5312980838e+00 1.5318022649e+00 5.1099893000e-04 0.0000e+00 1.0000e+00
<vert_displacement>
499.37704982842496
</vert_displacement>
</event>
<event>
 4   1200 +8.5212000e+10 9.30746100e-03 7.81665300e-03            nan
       50 -1    0    0    0    0 +9.4033923410e-03 -3.6138161664e-03 +7.6418165401e+00 7.6418248116e+00 4.9935713700e-03 0.0000e+00 0.0000e+00
       11 -1    0    0    0    0 -3.1592176230e-19 +1.2141184059e-19 -2.5673885136e-16 5.1100000000e-04 5.1099893000e-04 0.0000e+00 1.0000e+00
       50  1    1    2    0    0 +1.8053009249e-03 -1.3279787660e-03 +7.5809716715e+00 7.5809736474e+00 4.9935713700e-03 0.0000e+00 0.0000e+00
       11  1    1    2    0    0 +7.5980914160e-03 -2.2858374004e-03 +6.0844868599e-02 6.1362164243e-02 5.1099893000e-04 0.0000e+00 1.0000e+00
<vert_displacement>
58.388965647306428
</vert_displacement>
</event>
<event>
 4   1200 +8.5212000e+10 2.23634100e-02 7.81665300e-03            nan
       50 -1    0    0    0    0 +1.8041758684e-03 +1.5377267476e-02 +6.4253739442e+00 6.4253945384e+00 4.9935713700e-03 0.0000e+00 0.0000e+00
       11 -1    0    0    0    0 -1.6755905386e-19 -1.4281315000e-18 -5.9674314331e-16 5.1100000000e-04 5.1099893000e-04 0.0000e+00 1.0000e+00
       50  1    1    2    0    0 +1.9243989600e-02 +1.2821839005e-03 +5.9205988287e+00 5.9206323481e+00 4.9935713700e-03 0.0000e+00 0.0000e+00
       11  1    1    2    0    0 -1.7439813731e-02 +1.4095083575e-02 +5.0477511550e-01 5.0527319029e-01 5.1099893000e-04 0.0000e+00 1.0000e+00
<vert_displacement>
70.368226015073375
</vert_displacement>
</event>
<event>
 4   1200 +8.5212000e+10 9.29436000e-03 7.81665300e-03            nan
       50 -1    0    0    0    0 -2.1599722604e-02 +2.3313144007e-02 +1.4574674771e+01 1.4574710277e+01 4.9935713700e-03 0.0000e+00 0.0000e+00
       11 -1    0    0    0    0 -3.4963703849e-19 +3.7737237546e-19 +2.3592183184e-16 5.1100000000e-04 5.1099893000e-04 0.0000e+00 1.0000e+00
       50  1    1    2    0    0 -1.5198705592e-02 +1.8567519406e-02 +1.4514312461e+01 1.4514333154e+01 4.9935713700e-03 0.0000e+00 0.0000e+00
       11  1    1    2    0    0 -6.4010170123e-03 +4.7456246004e-03 +6.0362310130e-02 6.0888123438e-02 5.1099893000e-04 0.0000e+00 1.0000e+00
<vert_displacement>
218.23852985671138
</vert_displacement>
</event>
<event>
 4   1200 +8.5212000e+10 1.12236500e-02 7.81665300e-03            nan
       50 -1    0    0    0    0 -2.3403033020e-03 +2.4585299341e-03 +5.5100682198e+00 5.5100715280e+00 4.9935713700e-03 0.0000e+00 0.0000e+00
       11 -1    0    0    0    0 +2.9471709943e-20 -3.0960551585e-20 -6.9388925873e-17 5.1100000000e-04 5.1099893000e-04 0.0000e+00 1.0000e+00
       50  1    1    2    0    0 -1.1380680864e-02 -1.8911498417e-03 +5.4093484167e+00 5.4093630240e+00 4.9935713700e-03 0.0000e+00 0.0000e+00
       11  1    1    2    0    0 +9.0403775619e-03 +4.3496797758e-03 +1.0071980308e-01 1.0121950402e-01 5.1099893000e-04 0.0000e+00 1.0000e+00
<vert_displacement>
186.40265425323236
</vert_displacement>
</event>
<event>
 4   1200 +8.5212000e+10 2.74772400e-02 7.81665300e-03            nan
       50 -1    0    0    0    0 +2.5011687035e-02 +4.9778103857e-03 +7.7765501058e+00 7.7765935246e+00 4.9935713700e-03 0.0000e+00 0.0000e+00
       11 -1    0    0    0    0 +2.2317416736e-20 +4.4415983878e-21 +6.9388565928e-18 5.1100000000e-04 5.1099893000e-04 0.0000e+00 1.0000e+00
       50  1    1    2    0    0 +9.4849224610e-03 +2.8173510466e-02 +6.9804242216e+00 6.9804893066e+00 4.9935713700e-03 0.0000e+00 0.0000e+00
       11  1    1    2    0    0 +1.5526764574e-02 -2.3195700080e-02 +7.9612588425e-01 7.9661521804e-01 5.1099893000e-04 0.0000e+00 1.0000e+00
<vert_displacement>
59.763007842919698
</vert_displacement>
</event>
<event>
 4   1200 +8.5212000e+10 1.86978600e-02 7.81665300e-03            nan
       50 -1    0    0    0    0 +1.0558830479e-02 +1.5285251779e-02 +9.8628132651e+00 9.8628320256e+00 4.9935713700e-03 0.0000e+00 0.0000e+00
       11 -1    0    0    0    0 +9.5828390470e-19 +1.3872379889e-18 +8.9511572569e-16 5.1100000000e-04 5.1099893000e-04 0.0000e+00 1.0000e+00
       50  1    1    2    0    0 +6.6400892050e-03 -2.8862557581e-03 +9.5341633283e+00 9.5341673851e+00 4.9935713700e-03 0.0000e+00 0.0000e+00
       11  1    1    2    0    0 +3.9187412744e-03 +1.8171507537e-02 +3.2864993676e-01 3.2917564046e-01 5.1099893000e-04 0.0000e+00 1.0000e+00
<vert_displacement>
403.50270326049616
</vert_displacement>
</event>
<event>
 4   1200 +8.5212000e+10 4.46585900e-02 7.81665300e-03            nan
       50 -1    0    0    0    0 -1.5370493924e-02 +1.3041501230e-02 +1.3661646410e+01 1.3661662194e+01 4.9935713700e-03 0.0000e+00 0.0000e+00
       11 -1    0    0    0    0 +1.1944445359e-18 -1.0134579904e-18 -1.0616496116e-15 5.1100000000e-04 5.1099893000e-04 0.0000e+00 1.0000e+00
       50  1    1    2    0    0 -4.9246702399e-02 +3.6082227110e-02 +1.1338845913e+01 1.1339011365e+01 4.9935713700e-03 0.0000e+00 0.0000e+00
       11  1    1    2    0    0 +3.3876208474e-02 -2.3040725880e-02 +2.3228004970e+00 2.3231618288e+00 5.1099893000e-04 0.0000e+00 1.0000e+00
<vert_displacement>
220.15810136090411
</vert_displacement>
</event>
<event>
 4   1200 +8.5212000e+10 6.17746800e-03 7.81665300e-03            nan
       50 -1    0    0    0    0 +1.4166517543e-02 +1.4223322396e-02 +2.1230532918e+01 2.1230542997e+01 4.9935713700e-03 0.0000e+00 0.0000e+00
       11 -1    0    0    0    0 -8.7046258835e-19 -8.7395296617e-19 -1.3045114708e-15 5.1100000000e-04 5.1099893000e-04 0.0000e+00 1.0000e+00
       50  1    1    2    0    0 +1.1925189282e-02 +1.7085267644e-02 +2.1217583612e+01 2.1217594430e+01 4.9935713700e-03 0.0000e+00 0.0000e+00
       11  1    1    2    0    0 +2.2413282614e-03 -2.8619452480e-03 +1.2949306655e-02 1.3459567071e-02 5.1099893000e-04 0.0000e+00 1.0000e+00
<vert_displacement>
112.15533859569703
</vert_displacement>
</event>
<event>
 4   1200 +8.5212000e+10 1.49159200e-02 7.81665300e-03            nan
       50 -1    0    0    0    0 -3.3520074602e-02 +2.2912778138e-02 +1.5735746263e+01 1.5735799439e+01 4.9935713700e-03 0.0000e+00 0.0000e+00
       11 -1    0    0    0    0 -1.4781089066e-19 +1.0103671260e-19 +6.9388708047e-17 5.1100000000e-04 5.1099893000e-04 0.0000e+00 1.0000e+00
       50  1    1    2    0    0 -1.9588396256e-02 +1.8767677052e-02 +1.5540040021e+01 1.5540064501e+01 4.9935713700e-03 0.0000e+00 0.0000e+00
       11  1    1    2    0    0 -1.3931678346e-02 +4.1451010859e-03 +1.9570624240e-01 1.9624593744e-01 5.1099893000e-04 0.0000e+00 1.0000e+00
<vert_displacement>
431.61222968668073
</vert_displacement>
</event>
<event>
 4   1200 +8.5212000e+10 1.20399100e-02 7.81665300e-03            nan
       50 -1    0    0    0    0 -5.8298949874e-03 -2.3660376996e-02 +1.1411007196e+01 1.1411034308e+01 4.9935713700e-03 0.0000e+00 0.0000e+00
       11 -1    0    0    0    0 -5.8848323866e-19 -2.3883338058e-18 +1.1518537617e-15 5.1100000000e-04 5.1099893000e-04 0.0000e+00 1.0000e+00
       50  1    1    2    0    0 -4.6458284306e-03 -1.2516537519e-02 +1.1292348343e+01 1.1292357340e+01 4.9935713700e-03 0.0000e+00 0.0000e+00
       11  1    1    2    0    0 -1.1840665568e-03 -1.1143839477e-02 +1.1865885324e-01 1.1918796812e-01 5.1099893000e-04 0.0000e+00 1.0000e+00
<vert_displacement>
389.06919262474423
</vert_displacement>
</event>
<event>
 4   1200 +8.5212000e+10 9.83999400e-03 7.81665300e-03            nan
       50 -1    0    0    0    0 +2.3923448440e-02 +1.0857831675e-02 +1.1780513974e+01 1.1780544328e+01 4.9935713700e-03 0.0000e+00 0.0000e+00
       11 -1    0    0    0    0 -1.7473117391e-18 -7.9303018514e-19 -8.6042070444e-16 5.1100000000e-04 5.1099893000e-04 0.0000e+00 1.0000e+00
       50  1    1    2    0    0 +1.6560732200e-02 +1.5239591200e-02 +1.1709753430e+01 1.1709776122e+01 4.9935713700e-03 0.0000e+00 0.0000e+00
       11  1    1    2    0    0 +7.3627162401e-03 -4.3817595256e-03 +7.0760543930e-02 7.1279205271e-02 5.1099893000e-04 0.0000e+00 1.0000e+00
<vert_displacement>
439.59893824456032
</vert_displacement>
</event>
<event>
 4   1200 +8.5212000e+10 8.80748800e-03 7.81665300e-03            nan
       50 -1    0    0    0    0 -7.5678323611e-02 -2.7664206748e-02 +2.3939227619e+01 2.3939363744e+01 4.9935713700e-03 0.0000e+00 0.0000e+00
       11 -1    0    0    0    0 +3.5535642391e-18 +1.2990051987e-18 -1.1240944450e-15 5.1100000000e-04 5.1099893000e-04 0.0000e+00 1.0000e+00
       50  1    1    2    0    0 -7.0398942497e-02 -2.2460632775e-02 +2.3887634499e+01 2.3887749316e+01 4.9935713700e-03 0.0000e+00 0.0000e+00
       11  1    1    2    0    0 -5.2793811141e-03 -5.2035739730e-03 +5.1593120114e-02 5.2125427672e-02 5.1099893000e-04 0.0000e+00 1.0000e+00
<vert_displacement>
214.76821066638573
</vert_displacement>
</event>
<event>
 4   1200 +8.5212000e+10 1.03625500e-02 7.81665300e-03            nan
       50 -1    0    0    0    0 -1.1972086351e-02 -9.7627874867e-03 +7.1186893872e+00 7.1187079003e+00 4.9935713700e-03 0.0000e+00 0.0000e+00
       11 -1    0    0    0    0 -5.0179632595e-19 -4.0919608730e-19 +2.9837173532e-16 5.1100000000e-04 5.1099893000e-04 0.0000e+00 1.0000e+00
       50  1    1    2    0    0 -1.9690381752e-02 -5.0970833376e-03 +7.0370660065e+00 7.0370971719e+00 4.9935713700e-03 0.0000e+00 0.0000e+00
       11  1    1    2    0    0 +7.7182954010e-03 -4.6657041491e-03 +8.1623380721e-02 8.2121728424e-02 5.1099893000e-04 0.0000e+00 1.0000e+00
<vert_displacement>
191.94822505993349
</vert_displacement>
</event>
<event>
 4   1200 +8.5212000e+10 1.07823000e-02 7.81665300e-03            nan
       50 -1    0    0    0    0 -4.0455120844e-02 -2.1690471858e-02 +2.2156918109e+01 2.2156966221e+01 4.9935713700e-03 0.0000e+00 0.0000e+00
       11 -1    0    0    0    0 -1.0135459728e-18 -5.4342416833e-19 +5.5511032103e-16 5.1100000000e-04 5.1099893000e-04 0.0000e+00 1.0000e+00
       50  1    1    2    0    0 -3.0869430905e-02 -2.3199647890e-02 +2.2067211665e+01 2.2067246016e+01 4.9935713700e-03 0.0000e+00 0.0000e+00
       11  1    1    2    0    0 -9.5856899387e-03 +1.5091760322e-03 +8.9706444435e-02 9.0231205007e-02 5.1099893000e-04 0.0000e+00 1.0000e+00
<vert_displacement>
473.46455137304042
</vert_displacement>
</event>
<event>
 4   1200 +8.5212000e+10 2.56779000e-02 7.81665300e-03            nan
       50 -1    0    0    0    0 -2.4688969174e-02 +2.5923743276e-02 +2.8412028852e+01 2.8412051845e+01 4.9935713700e-03 0.0000e+00 0.0000e+00
       11 -1    0    0    0    0 -1.9174221182e-18 +2.0133185145e-18 +2.2065665099e-15 5.1100000000e-04 5.1099893000e-04 0.0000e+00 1.0000e+00
       50  1    1    2    0    0 -2.7992363234e-02 +4.5349022034e-04 +2.7777072325e+01 2.7777086883e+01 4.9935713700e-03 0.0000e+00 0.0000e+00
       11  1    1    2    0    0 +3.3033940596e-03 +2.5470253056e-02 +6.3495652700e-01 6.3547596217e-01 5.1099893000e-04 0.0000e+00 1.0000e+00
<vert_displacement>
439.04413861647754
</vert_displacement>
</event>
<event>
 4   1200 +8.5212000e+10 1.00075100e-02 7.81665300e-03            nan
       50 -1    0    0    0    0 -5.4956847831e-02 -3.8507581784e-02 +1.7318678694e+01 1.7318809420e+01 4.9935713700e-03 0.0000e+00 0.0000e+00
       11 -1    0    0    0    0 -2.5541831535e-18 -1.7896844626e-18 +8.0490565066e-16 5.1100000000e-04 5.1099893000e-04 0.0000e+00 -1.0000e+00
       50  1    1    2    0    0 -6.1562691141e-02 -3.3011870485e-02 +1.7244755930e+01 1.7244898137e+01 4.9935713700e-03 0.0000e+00 0.0000e+00
       11  1    1    2    0    0 +6.6058433099e-03 -5.4957112991e-03 +7.3922764364e-02 7.4422283085e-02 5.1099893000e-04 0.0000e+00 -1.0000e+00
<vert_displacement>
326.75821495957842
</vert_displacement>
</event>
<event>
 4   1200 +8.5212000e+10 1.15174400e-02 7.81665300e-03            nan
       50 -1    0    0    0    0 +2.9481837361e-02 -2.8046353943e-02 +1.3260902340e+01 1.3260965711e+01 4.9935713700e-03 0.0000e+00 0.0000e+00
       11 -1    0    0    0    0 +1.9591757330e-18 -1.8637826188e-18 +8.8123537705e-16 5.1100000000e-04 5.1099893000e-04 0.0000e+00 1.0000e+00
       50  1    1    2    0    0 +3.8330467266e-02 -3.2839622796e-02 +1.3154618018e+01 1.3154715801e+01 4.9935713700e-03 0.0000e+00 0.0000e+00
       11  1    1    2    0    0 -8.8486299050e-03 +4.7932688531e-03 +1.0628432258e-01 1.0676091056e-01 5.1099893000e-04 0.0000e+00 1.0000e+00
<vert_displacement>
382.25726440184388
</vert_displacement>
</event>
<event>
 4   1200 +8.5212000e+10 1.76880800e-02 7.81665300e-03            nan
       50 -1    0    0    0    0 +3.6392894046e-02 +9.6782470355e-03 +1.0854598832e+01 1.0854665303e+01 4.9935713700e-03 0.0000e+00 0.0000e+00
       11 -1    0    0    0    0 +3.9781995117e-18 +1.0579537198e-18 +1.1865437170e-15 5.1100000000e-04 5.1099893000e-04 0.0000e+00 1.0000e+00
       50  1    1    2    0    0 +1.8802282378e-02 +1.2841223598e-02 +1.0565168171e+01 1.0565193885e+01 4.9935713700e-03 0.0000e+00 0.0000e+00
       11  1    1    2    0    0 +1.7590611668e-02 -3.1629765624e-03 +2.8943066107e-01 2.8998241797e-01 5.1099893000e-04 0.0000e+00 1.0000e+00
<vert_displacement>
412.39786967909856
</vert_displacement>
</event>
<event>
 4   1200 +8.5212000e+10 4.60099600e-02 7.81665300e-03            nan
       50 -1    0    0    0    0 +7.4145251872e-03 +2.8404252122e-02 +1.5385076828e+01 1.5385105646e+01 4.9935713700e-03 0.0000e+00 0.0000e+00
       11 -1    0    0    0    0 -9.3633479708e-20 -3.5869983546e-19 -1.9428867563e-16 5.1100000000e-04 5.1099893000e-04 0.0000e+00 1.0000e+00
       50  1    1    2    0    0 +5.0976194965e-02 +3.3446639870e-02 +1.2952958490e+01 1.2953102942e+01 4.9935713700e-03 0.0000e+00 0.0000e+00
       11  1    1    2    0    0 -4.3561669778e-02 -5.0423877483e-03 +2.4321183390e+00 2.4325137041e+00 5.1099893000e-04 0.0000e+00 1.0000e+00
<vert_displacement>
145.55370481996090
</vert_displacement>
</event>
<event>
 4   1200 +8.5212000e+10 3.12003700e-02 7.81665300e-03            nan
       50 -1    0    0    0    0 +6.9625747439e-03 +1.7988144831e-02 +9.3782519098e+00 9.3782730751e+00 4.9935713700e-03 0.0000e+00 0.0000e+00
       11 -1    0    0    0    0 +1.7000090944e-19 +4.3920547971e-19 +2.2898301451e-16 5.1100000000e-04 5.1099893000e-04 0.0000e+00 -1.0000e+00
       50  1    1    2    0    0 +1.3635247783e-02 -1.3899862834e-02 +8.3334329958e+00 8.3334572392e+00 4.9935713700e-03 0.0000e+00 0.0000e+00
       11  1    1    2    0    0 -6.6726730395e-03 +3.1888007665e-02 +1.0448189140e+00 1.0453268359e+00 5.1099893000e-04 0.0000e+00 -1.0000e+00
<vert_displacement>
429.31903806103173
</vert_displacement>
</event>
<event>
 4   1200 +8.5212000e+10 4.12005200e-02 7.81665300e-03            nan
       50 -1    0    0    0    0 -4.8029367340e-04 +2.3042166344e-02 +9.7773019157e+00 9.7773303544e+00 4.9935713700e-03 0.0000e+00 0.0000e+00
       11 -1    0    0    0    0 -1.8065614977e-20 +8.6670078840e-19 +3.6776035519e-16 5.1100000000e-04 5.1099893000e-04 0.0000e+00 1.0000e+00
       50  1    1    2    0    0 +1.5267342926e-02 -1.9646343130e-02 +7.6970229085e+00 7.6970647431e+00 4.9935713700e-03 0.0000e+00 0.0000e+00
       11  1    1    2    0    0 -1.5747636599e-02 +4.2688509473e-02 +2.0802790072e+00 2.0807766113e+00 5.1099893000e-04 0.0000e+00 1.0000e+00
<vert_displacement>
196.20784493554956
</vert_displacement>
</event>
<event>
 4   1200 +8.5212000e+10 2.74571400e-02 7.81665300e-03            nan
       50 -1    0    0    0    0 +7.0063530973e-02 +5.1257987076e-02 +2.5425346714e+01 2.5425495408e+01 4.9935713700e-03 0.0000e+00 0.0000e+00
       11 -1    0    0    0    0 -7.0365644682e-18 -5.1479011343e-18 -2.5534980724e-15 5.1100000000e-04 5.1099893000e-04 0.0000e+00 1.0000e+00
       50  1    1    2    0    0 +5.0866661135e-02 +7.0611146998e-02 +2.4690835245e+01 2.4690989113e+01 4.9935713700e-03 0.0000e+00 0.0000e+00
       11  1    1    2    0    0 +1.9196869838e-02 -1.9353159922e-02 +7.3451146966e-01 7.3501729557e-01 5.1099893000e-04 0.0000e+00 1.0000e+00
<vert_displacement>
66.652410814926853
</vert_displacement>
</event>
<event>
 4   1200 +8.5212000e+10 2.53745100e-02 7.81665300e-03            nan
       50 -1    0    0    0    0 +2.9755103290e-02 -7.8933839096e-03 +1.3550021725e+01 1.3550057614e+01 4.9935713700e-03 0.0000e+00 0.0000e+00
       11 -1    0    0    0    0 -2.8951041905e-19 +7.6800838537e-20 -1.3183864393e-16 5.1100000000e-04 5.1099893000e-04 0.0000e+00 1.0000e+00
       50  1    1    2    0    0 +5.0927795038e-02 -1.7992380444e-02 +1.2914481480e+01 1.2914595394e+01 4.9935713700e-03 0.0000e+00 0.0000e+00
       11  1    1    2    0    0 -2.1172691749e-02 +1.0098996534e-02 +6.3554024510e-01 6.3597322025e-01 5.1099893000e-04 0.0000e+00 1.0000e+00
<vert_displacement>
119.55992440494174
</vert_displacement>
</event>
<event>
 4   1200 +8.5212000e+10 5.67530200e-03 7.81665300e-03            nan
       50 -1    0    0    0    0 -6.5205101451e-02 +8.6480922187e-02 +3.5284466045e+01 3.5284632627e+01 4.9935713700e-03 0.0000e+00 0.0000e+00
       11 -1    0    0    0    0 -4.2828483139e-18 +5.6803020551e-18 +2.3175796455e-15 5.1100000000e-04 5.1099893000e-04 0.0000e+00 1.0000e+00
       50  1    1    2    0    0 -6.2620037512e-02 +8.5651971838e-02 +3.5277354546e+01 3.5277514457e+01 4.9935713700e-03 0.0000e+00 0.0000e+00
       11  1    1    2    0    0 -2.5850639395e-03 +8.2895034812e-04 +7.1114981941e-03 7.6291703823e-03 5.1099893000e-04 0.0000e+00 1.0000e+00
<vert_displacement>
221.74088813071137
</vert_displacement>
</event>
<event>
 4   1200 +8.5212000e+10 1.01440600e-02 7.81665300e-03            nan
       50 -1    0    0    0    0 -1.1789727767e-02 +2.9315608850e-02 +1.3541385398e+01 1.3541423183e+01 4.9935713700e-03 0.0000e+00 0.0000e+00
       11 -1    0    0    0    0 -7.4307877203e-19 +1.8476937768e-18 +8.5348162668e-16 5.1100000000e-04 5.1099893000e-04 0.0000e+00 1.0000e+00
       50  1    1    2    0    0 -5.3059046880e-03 +2.3084223413e-02 +1.3464678097e+01 1.3464699856e+01 4.9935713700e-03 0.0000e+00 0.0000e+00
       11  1    1    2    0    0 -6.4838230795e-03 +6.2313854367e-03 +7.6707301256e-02 7.7234327291e-02 5.1099893000e-04 0.0000e+00 1.0000e+00
<vert_displacement>
403.80501409352979
</vert_displacement>
</event>
<event>
 4   1200 +8.5212000e+10 2.16759100e-02 7.81665300e-03            nan
       50 -1    0    0    0    0 +5.9287239604e-03 +3.6776841007e-03 +4.6087629845e+00 4.6087709705e+00 4.9935713700e-03 0.0000e+00 0.0000e+00
       11 -1    0    0    0    0 -5.8912918937e-19 -3.6544643797e-19 -4.5796647292e-16 5.1100000000e-04 5.1099893000e-04 0.0000e+00 1.0000e+00
       50  1    1    2    0    0 +2.4910108735e-02 -4.4849488093e-03 +4.1216042390e+00 4.1216849791e+00 4.9935713700e-03 0.0000e+00 0.0000e+00
       11  1    1    2    0    0 -1.8981384775e-02 +8.1626329100e-03 +4.8715874549e-01 4.8759699135e-01 5.1099893000e-04 0.0000e+00 1.0000e+00
<vert_displacement>
217.76680268003875
</vert_displacement>
</event>
<event>
 4   1200 +8.5212000e+10 3.22934500e-02 7.81665300e-03            nan
       50 -1    0    0    0    0 -6.7711000551e-02 -4.0212409588e-02 +1.9490456727e+01 1.9490616464e+01 4.9935713700e-03 0.0000e+00 0.0000e+00
       11 -1    0    0    0    0 -8.4852878697e-18 -5.0392678961e-18 +2.4424707166e-15 5.1100000000e-04 5.1099893000e-04 0.0000e+00 1.0000e+00
       50  1    1    2    0    0 -3.4119585838e-02 -2.6998336681e-02 +1.8437587106e+01 1.8437639119e+01 4.9935713700e-03 0.0000e+00 0.0000e+00
       11  1    1    2    0    0 -3.3591414713e-02 -1.3214072908e-02 +1.0528696203e+00 1.0534883451e+00 5.1099893000e-04 0.0000e+00 1.0000e+00
<vert_displacement>
83.535111016912694
</vert_displacement>
</event>
<event>
 4   1200 +8.5212000e+10 2.07947400e-02 7.81665300e-03            nan
       50 -1    0    0    0    0 -8.7823035886e-03 +2.5448799381e-03 +2.1898645896e+01 2.1898648374e+01 4.9935713700e-03 0.0000e+00 0.0000e+00
       11 -1    0    0    0    0 +1.1353808298e-18 -3.2900341770e-19 -2.8310684660e-15 5.1100000000e-04 5.1099893000e-04 0.0000e+00 1.0000e+00
       50  1    1    2    0    0 -2.0372420270e-02 +1.8909589640e-02 +2.1492370816e+01 2.1492389370e+01 4.9935713700e-03 0.0000e+00 0.0000e+00
       11  1    1    2    0    0 +1.1590116681e-02 -1.6364709702e-02 +4.0627507973e-01 4.0677000388e-01 5.1099893000e-04 0.0000e+00 1.0000e+00
<vert_displacement>
498.33617978126324
</vert_displacement>
</event>
<event>
 4   1200 +8.5212000e+10 1.59467400e-02 7.81665300e-03            nan
       50 -1    0    0    0    0 -1.5743765476e-02 -2.0902140222e-02 +1.6065385575e+01 1.6065407663e+01 4.9935713700e-03 0.0000e+00 0.0000e+00
       11 -1    0    0    0    0 +1.3871943043e-18 +1.8417023493e-18 -1.4155324786e-15 5.1100000000e-04 5.1099893000e-04 0.0000e+00 1.0000e+00
       50  1    1    2    0    0 -1.6720166613e-03 -2.6736021458e-02 +1.5837727695e+01 1.5837751137e+01 4.9935713700e-03 0.0000e+00 0.0000e+00
       11  1    1    2    0    0 -1.4071748815e-02 +5.8338812358e-03 +2.2765788020e-01 2.2816752578e-01 5.1099893000e-04 0.0000e+00 1.0000e+00
<vert_displacement>
276.85959111507140
</vert_displacement>
</event>
<event>
 4   1200 +8.5212000e+10 1.05224900e-02 7.81665300e-03            nan
       50 -1    0    0    0    0 +3.3230968037e-02 +4.7113160188e-02 +1.8371456994e+01 1.8371548137e+01 4.9935713700e-03 0.0000e+00 0.0000e+00
       11 -1    0    0    0    0 +4.6439680685e-18 +6.5839794760e-18 +2.5673781022e-15 5.1100000000e-04 5.1099893000e-04 0.0000e+00 1.0000e+00
       50  1    1    2    0    0 +4.0152018882e-02 +4.0917659993e-02 +1.8287129720e+01 1.8287220259e+01 4.9935713700e-03 0.0000e+00 0.0000e+00
       11  1    1    2    0    0 -6.9210508453e-03 +6.1955001954e-03 +8.4327273223e-02 8.4838878450e-02 5.1099893000e-04 0.0000e+00 1.0000e+00
<vert_displacement>
337.33289649584032
</vert_displacement>
</event>
<event>
 4   1200 +8.5212000e+10 1.95520900e-02 7.81665300e-03            nan
       50 -1    0    0    0    0 +6.7412907424e-03 +5.7630762212e-03 +2.7797540233e+00 2.7797726569e+00 4.9935713700e-03 0.0000e+00 0.0000e+00
       11 -1    0    0    0    0 -1.3462158957e-19 -1.1508693384e-19 -5.5510868693e-17 5.1100000000e-04 5.1099893000e-04 0.0000e+00 1.0000e+00
       50  1    1    2    0    0 -1.1466627227e-02 +1.5063739970e-02 +4.3495352151e-01 4.3539396118e-01 4.9935713700e-03 0.0000e+00 0.0000e+00
       11  1    1    2    0    0 +1.8207917970e-02 -9.3006637486e-03 +2.3448005018e+00 2.3448896957e+00 5.1099893000e-04 0.0000e+00 1.0000e+00
<vert_displacement>
445.11503036307590
</vert_displacement>
</event>
<event>
 4   1200 +8.5212000e+10 1.48725900e-02 7.81665300e-03            nan
       50 -1    0    0    0    0 +1.5537017280e-02 +1.0132382007e-02 +1.4594377819e+01 1.4594390461e+01 4.9935713700e-03 0.0000e+00 0.0000e+00
       11 -1    0    0    0    0 +1.1893175734e-18 +7.7560703992e-19 +1.1171610162e-15 5.1100000000e-04 5.1099893000e-04 0.0000e+00 1.0000e+00
       50  1    1    2    0    0 +1.8860460096e-02 -3.5597649942e-03 +1.4399743279e+01 1.4399756937e+01 4.9935713700e-03 0.0000e+00 0.0000e+00
       11  1    1    2    0    0 -3.3234428156e-03 +1.3692147001e-02 +1.9463454003e-01 1.9514452453e-01 5.1099893000e-04 0.0000e+00 1.0000e+00
<vert_displacement>
45.486382625482101
</vert_displacement>
</event>
<event>
 4   1200 +8.5212000e+10 3.91359300e-02 7.81665300e-03            nan
       50 -1    0    0    0    0 -1.1487886614e-01 +7.1701686783e-02 +3.4055547601e+01 3.4055817207e+01 4.9935713700e-03 0.0000e+00 0.0000e+00
       11 -1    0    0    0    0 +8.2391374792e-18 -5.1424607042e-18 -2.4424713442e-15 5.1100000000e-04 5.1099893000e-04 0.0000e+00 1.0000e+00
       50  1    1    2    0    0 -1.4674619183e-01 +5.6961755478e-02 +3.2511102215e+01 3.2511483683e+01 4.9935713700e-03 0.0000e+00 0.0000e+00
       11  1    1    2    0    0 +3.1867325684e-02 +1.4739931304e-02 +1.5444453859e+00 1.5448445240e+00 5.1099893000e-04 0.0000e+00 1.0000e+00
<vert_displacement>
134.39846493809193
</vert_displacement>
</event>
<event>
 4   1200 +8.5212000e+10 1.21763100e-02 7.81665300e-03            nan
       50 -1    0    0    0    0 -1.8591667823e-02 -1.1121376325e-02 +6.6618878775e+00 6.6619249743e+00 4.9935713700e-03 0.0000e+00 0.0000e+00
       11 -1    0    0    0    0 -1.8977327772e-18 -1.1352074800e-18 +6.8000800698e-16 5.1100000000e-04 5.1099893000e-04 0.0000e+00 1.0000e+00
       50  1    1    2    0    0 -1.4416874133e-02 -2.1339413487e-02 +6.5389228001e+00 6.5389754196e+00 4.9935713700e-03 0.0000e+00 0.0000e+00
       11  1    1    2    0    0 -4.1747936901e-03 +1.0218037162e-02 +1.2296507740e-01 1.2346055470e-01 5.1099893000e-04 0.0000e+00 1.0000e+00
<vert_displacement>
129.74190768393623
</vert_displacement>
</event>
<event>
 4   1200 +8.5212000e+10 1.10476700e-02 7.81665300e-03            nan
       50 -1    0    0    0    0 +1.7406285598e-02 -1.7256352727e-02 +1.0758656453e+01 1.0758685532e+01 4.9935713700e-03 0.0000e+00 0.0000e+00
       11 -1    0    0    0    0 +1.7962102405e-19 -1.7807381883e-19 +1.1102201435e-16 5.1100000000e-04 5.1099893000e-04 0.0000e+00 1.0000e+00
       50  1    1    2    0    0 +2.2926088772e-02 -9.0458646504e-03 +1.0662774778e+01 1.0662804431e+01 4.9935713700e-03 0.0000e+00 0.0000e+00
       11  1    1    2    0    0 -5.5198031741e-03 -8.2104880766e-03 +9.5881674873e-02 9.6392100495e-02 5.1099893000e-04 0.0000e+00 1.0000e+00
<vert_displacement>
383.94482233421553
</vert_displacement>
</event>
<event>
 4   1200 +8.5212000e+10 2.05215000e-02 7.81665300e-03            nan
       50 -1    0    0    0    0 -6.3482650276e-02 +4.5173402887e-02 +2.1519971481e+01 2.1520113108e+01 4.9935713700e-03 0.0000e+00 0.0000e+00
       11 -1    0    0    0    0 -3.3978863332e-18 +2.4178903626e-18 +1.1518488385e-15 5.1100000000e-04 5.1099893000e-04 0.0000e+00 1.0000e+00
       50  1    1    2    0    0 -5.1368840475e-02 +6.0967266443e-02 +2.1125039081e+01 2.1125190103e+01 4.9935713700e-03 0.0000e+00 0.0000e+00
       11  1    1    2    0    0 -1.2113809801e-02 -1.5793863556e-02 +3.9493240057e-01 3.9543400543e-01 5.1099893000e-04 0.0000e+00 1.0000e+00
<vert_displacement>
260.74541639696605
</vert_displacement>
</event>
<event>
 4   1200 +8.5212000e+10 8.61948700e-03 7.81665300e-03            nan
       50 -1    0    0    0    0 +2.0266771899e-02 -8.6562134746e-03 +1.5086556788e+01 1.5086573711e+01 4.9935713700e-03 0.0000e+00 0.0000e+00
       11 -1    0    0    0    0 -8.2961049631e-19 +3.5433790802e-19 -6.1756089856e-16 5.1100000000e-04 5.1099893000e-04 0.0000e+00 1.0000e+00
       50  1    1    2    0    0 +1.3704754138e-02 -1.1302305357e-02 +1.5038109262e+01 1.5038120583e+01 4.9935713700e-03 0.0000e+00 0.0000e+00
       11  1    1    2    0    0 +6.5620177606e-03 +2.6460918826e-03 +4.8447525872e-02 4.8964127302e-02 5.1099893000e-04 0.0000e+00 1.0000e+00
<vert_displacement>
341.91758157677856
</vert_displacement>
</event>
<event>
 4   1200 +8.5212000e+10 1.05158900e-02 7.81665300e-03            nan
       50 -1    0    0    0    0 +1.5051397630e-02 -5.2157370118e-03 +6.8880892226e+00 6.8881094520e+00 4.9935713700e-03 0.0000e+00 0.0000e+00
       11 -1    0    0    0    0 -1.4555877233e-18 +5.0440251128e-19 -6.6613203348e-16 5.1100000000e-04 5.1099893000e-04 0.0000e+00 1.0000e+00
       50  1    1    2    0    0 +2.3656772575e-02 -2.2584334405e-03 +6.8032125167e+00 6.8032558548e+00 4.9935713700e-03 0.0000e+00 0.0000e+00
       11  1    1    2    0    0 -8.6053749458e-03 -2.9573035714e-03 +8.4876705948e-02 8.5364597199e-02 5.1099893000e-04 0.0000e+00 1.0000e+00
<vert_displacement>
420.69461189945247
</vert_displacement>
</event>
<event>
 4   1200 +8.5212000e+10 5.91858100e-03 7.81665300e-03            nan
       50 -1    0    0    0    0 +2.6022554381e-02 +1.6212393422e-03 +1.8343571465e+01 1.8343590675e+01 4.9935713700e-03 0.0000e+00 0.0000e+00
       11 -1    0    0    0    0 +2.8152817843e-18 +1.7539575559e-19 +1.9845216519e-15 5.1100000000e-04 5.1099893000e-04 0.0000e+00 1.0000e+00
       50  1    1    2    0    0 +2.6949120615e-02 +4.6550231182e-03 +1.8333687705e+01 1.8333708782e+01 4.9935713700e-03 0.0000e+00 0.0000e+00
       11  1    1    2    0    0 -9.2656623464e-04 -3.0337837760e-03 +9.8837607886e-03 1.0392892582e-02 5.1099893000e-04 0.0000e+00 1.0000e+00
<vert_displacement>
346.00799464849672
</vert_displacement>
</event>
<event>
 4   1200 +8.5212000e+10 7.17016400e-03 7.81665300e-03            nan
       50 -1    0    0    0    0 -6.0653560418e-02 +1.6722198504e-02 +3.2809194572e+01 3.2809255278e+01 4.9935713700e-03 0.0000e+00 0.0000e+00
       11 -1    0    0    0    0 +4.7206086477e-18 -1.3014727301e-18 -2.5535082615e-15 5.1100000000e-04 5.1099893000e-04 0.0000e+00 -1.0000e+00
       50  1    1    2    0    0 -6.5203920650e-02 +1.9017909803e-02 +3.2783258460e+01 3.2783329199e+01 4.9935713700e-03 0.0000e+00 0.0000e+00
       11  1    1    2    0    0 +4.5503602318e-03 -2.2957112989e-03 +2.5936112240e-02 2.6437078254e-02 5.1099893000e-04 0.0000e+00 -1.0000e+00
<vert_displacement>
62.124031269597545
</vert_displacement>
</event>
<event>
 4   1200 +8.5212000e+10 1.63426300e-02 7.81665300e-03            nan
       50 -1    0    0    0    0 +1.3029137172e-02 +5.9308122215e-04 +1.0614207021e+01 1.0614216209e+01 4.9935713700e-03 0.0000e+00 0.0000e+00
       11 -1    0    0    0    0 +3.3218699715e-19 +1.5121022033e-20 +2.7061665795e-16 5.1100000000e-04 5.1099893000e-04 0.0000e+00 1.0000e+00
       50  1    1    2    0    0 +1.3112198795e-02 +1.6135907946e-02 +1.0371708340e+01 1.0371730382e+01 4.9935713700e-03 0.0000e+00 0.0000e+00
       11  1    1    2    0    0 -8.3061623048e-05 -1.5542826723e-02 +2.4249868087e-01 2.4299682653e-01 5.1099893000e-04 0.0000e+00 1.0000e+00
<vert_displacement>
318.54513494609591
</vert_displacement>
</event>
<event>
 4   1200 +8.5212000e+10 4.32447000e-02 7.81665300e-03            nan
       50 -1    0    0    0    0 -1.1984703108e-02 -2.1942817347e-02 +1.8269798004e+01 1.8269815794e+01 4.9935713700e-03 0.0000e+00 0.0000e+00
       11 -1    0    0    0    0 -2.2759010650e-19 -4.1669518984e-19 +3.4694437031e-16 5.1100000000e-04 5.1099893000e-04 0.0000e+00 1.0000e+00
       50  1    1    2    0    0 -2.1596650171e-02 +2.2035079352e-02 +1.6238099356e+01 1.6238129436e+01 4.9935713700e-03 0.0000e+00 0.0000e+00
       11  1    1    2    0    0 +9.6119470625e-03 -4.3977896699e-02 +2.0316986479e+00 2.0321973580e+00 5.1099893000e-04 0.0000e+00 1.0000e+00
<vert_displacement>
123.00443991666363
</vert_displacement>
</event>
<event>
 4   1200 +8.5212000e+10 2.87598900e-02 7.81665300e-03            nan
       50 -1    0    0    0    0 +6.7506918173e-03 +4.6983013544e-02 +2.5884902961e+01 2.5884946962e+01 4.9935713700e-03 0.0000e+00 0.0000e+00
       11 -1    0    0    0    0 +4.6326684853e-19 +3.2242136374e-18 +1.7763538529e-15 5.1100000000e-04 5.1099893000e-04 0.0000e+00 1.0000e+00
       50  1    1    2    0    0 -2.1365712531e-02 +5.0360140676e-02 +2.5074568741e+01 2.5074628912e+01 4.9935713700e-03 0.0000e+00 0.0000e+00
       11  1    1    2    0    0 +2.8116404348e-02 -3.3771271322e-03 +8.1033422079e-01 8.1082904961e-01 5.1099893000e-04 0.0000e+00 1.0000e+00
<vert_displacement>
16.775178055304195
</vert_displacement>
</event>
<event>
 4   1200 +8.5212000e+10 1.46092600e-02 7.81665300e-03            nan
       50 -1    0    0    0    0 -4.3488686333e-02 -3.8145916346e-02 +2.4940305653e+01 2.4940373240e+01 4.9935713700e-03 0.0000e+00 0.0000e+00
       11 -1    0    0    0    0 -6.2916845505e-18 -5.5187243574e-18 +3.6082151242e-15 5.1100000000e-04 5.1099893000e-04 0.0000e+00 1.0000e+00
       50  1    1    2    0    0 -5.6206252199e-02 -4.2152463234e-02 +2.4754450093e+01 2.4754550295e+01 4.9935713700e-03 0.0000e+00 0.0000e+00
       11  1    1    2    0    0 +1.2717565866e-02 +4.0065468884e-03 +1.8585555974e-01 1.8633394512e-01 5.1099893000e-04 0.0000e+00 1.0000e+00
<vert_displacement>
494.19291631124935
</vert_displacement>
</event>
<event>
 4   1200 +8.5212000e+10 1.52300500e-02 7.81665300e-03            nan
       50 -1    0    0    0    0 -1.1092335773e-02 -1.7092570674e-02 +1.6372516579e+01 1.6372530020e+01 4.9935713700e-03 0.0000e+00 0.0000e+00
       11 -1    0    0    0    0 +1.8992356101e-18 +2.9265990100e-18 -2.8033109662e-15 5.1100000000e-04 5.1099893000e-04 0.0000e+00 1.0000e+00
       50  1    1    2    0    0 -2.3818201418e-02 -1.0435248243e-02 +1.6167371990e+01 1.6167393674e+01 4.9935713700e-03 0.0000e+00 0.0000e+00
       11  1    1    2    0    0 +1.2725865645e-02 -6.6573224311e-03 +2.0514458823e-01 2.0564734572e-01 5.1099893000e-04 0.0000e+00 1.0000e+00
<vert_displacement>
321.74209835621679
</vert_displacement>
</event>
<event>
 4   1200 +8.5212000e+10 1.54951500e-02 7.81665300e-03            nan
       50 -1    0    0    0    0 +1.4911217056e-02 -3.1414743465e-03 +4.7514724785e+00 4.7514995384e+00 4.9935713700e-03 0.0000e+00 0.0000e+00
       11 -1    0    0    0    0 -9.5813248322e-19 +2.0185801101e-19 -3.0530976163e-16 5.1100000000e-04 5.1099893000e-04 0.0000e+00 1.0000e+00
       50  1    1    2    0    0 +8.0015983388e-04 +2.9308981392e-03 +4.5306452008e+00 4.5306489714e+00 4.9935713700e-03 0.0000e+00 0.0000e+00
       11  1    1    2    0    0 +1.4111057222e-02 -6.0723724857e-03 +2.2082727770e-01 2.2136156699e-01 5.1099893000e-04 0.0000e+00 1.0000e+00
<vert_displacement>
274.54681326627582
</vert_displacement>
</event>
<event>
 4   1200 +8.5212000e+10 2.42572700e-02 7.81665300e-03            nan
       50 -1    0    0    0    0 +2.9590481954e-02 +6.7839391074e-02 +3.2987763373e+01 3.2987846778e+01 4.9935713700e-03 0.0000e+00 0.0000e+00
       11 -1    0    0    0    0 -2.5270530309e-18 -5.7935433120e-18 -2.8171838344e-15 5.1100000000e-04 5.1099893000e-04 0.0000e+00 1.0000e+00
       50  1    1    2    0    0 +5.2189265451e-02 +6.1228724989e-02 +3.2426852750e+01 3.2426952939e+01 4.9935713700e-03 0.0000e+00 0.0000e+00
       11  1    1    2    0    0 -2.2598783497e-02 +6.6106660844e-03 +5.6091062272e-01 5.6140483941e-01 5.1099893000e-04 0.0000e+00 1.0000e+00
<vert_displacement>
105.19663644469404
</vert_displacement>
</event>
<event>
 4   1200 +8.5212000e+10 9.54193300e-03 7.81665300e-03            nan
       50 -1    0    0    0    0 +2.8855562451e-02 -1.9676632324e-02 +1.3013585354e+01 1.3013633179e+01 4.9935713700e-03 0.0000e+00 0.0000e+00
       11 -1    0    0    0    0 +2.1694036915e-18 -1.4793182033e-18 +9.7838051693e-16 5.1100000000e-04 5.1099893000e-04 0.0000e+00 1.0000e+00
       50  1    1    2    0    0 +3.4179847444e-02 -1.3560953177e-02 +1.2948565018e+01 1.2948618193e+01 4.9935713700e-03 0.0000e+00 0.0000e+00
       11  1    1    2    0    0 -5.3242849934e-03 -6.1156791472e-03 +6.5020336706e-02 6.5525986047e-02 5.1099893000e-04 0.0000e+00 1.0000e+00
<vert_displacement>
254.40584846876607
</vert_displacement>
</event>
<event>
 4   1200 +8.5212000e+10 2.12503200e-02 7.81665300e-03            nan
       50 -1    0    0    0    0 -1.3478493714e-02 -5.0339292053e-03 +7.8266320467e+00 7.8266468644e+00 4.9935713700e-03 0.0000e+00 0.0000e+00
       11 -1    0    0    0    0 +3.4654046582e-19 +1.2942545426e-19 -2.0122758320e-16 5.1100000000e-04 5.1099893000e-04 0.0000e+00 1.0000e+00
       50  1    1    2    0    0 -1.2204540889e-02 +1.5899666564e-02 +7.3840580025e+00 7.3840868948e+00 4.9935713700e-03 0.0000e+00 0.0000e+00
       11  1    1    2    0    0 -1.2739528246e-03 -2.0933595770e-02 +4.4257404421e-01 4.4307096961e-01 5.1099893000e-04 0.0000e+00 1.0000e+00
<vert_displacement>
413.35032688860252
</vert_displacement>
</event>
<event>
 4   1200 +8.5212000e+10 6.63064800e-02 7.81665300e-03            nan
       50 -1    0    0    0    0 +6.1601376224e-02 -2.3822862045e-03 +2.3719688670e+01 2.3719769307e+01 4.9935713700e-03 0.0000e+00 0.0000e+00
       11 -1    0    0    0    0 -5.7305635183e-18 +2.2161586721e-19 -2.2065608090e-15 5.1100000000e-04 5.1099893000e-04 0.0000e+00 1.0000e+00
       50  1    1    2    0    0 -1.6414292077e-02 +1.6714725534e-02 +1.8117881338e+01 1.8117897172e+01 4.9935713700e-03 0.0000e+00 0.0000e+00
       11  1    1    2    0    0 +7.8015668301e-02 -1.9097011739e-02 +5.6018073323e+00 5.6023831348e+00 5.1099893000e-04 0.0000e+00 1.0000e+00
<vert_displacement>
307.01621749765332
</vert_displacement>
</event>
<event>
 4   1200 +8.5212000e+10 1.22123200e-02 7.81665300e-03            nan
       50 -1    0    0    0    0 -3.5126999090e-03 -4.2276176185e-04 +1.0953937288e+01 1.0953938998e+01 4.9935713700e-03 0.0000e+00 0.0000e+00
       11 -1    0    0    0    0 -2.1361525148e-19 -2.5709101947e-20 +6.6613378003e-16 5.1100000000e-04 5.1099893000e-04 0.0000e+00 1.0000e+00
       50  1    1    2    0    0 -1.4521327199e-02 +1.0467803548e-03 +1.0831014496e+01 1.0831025433e+01 4.9935713700e-03 0.0000e+00 0.0000e+00
       11  1    1    2    0    0 +1.1008627290e-02 -1.4695421166e-03 +1.2292279200e-01 1.2342456539e-01 5.1099893000e-04 0.0000e+00 1.0000e+00
<vert_displacement>
449.94967542698629
</vert_displacement>
</event>
<event>
 4   1200 +8.5212000e+10 5.65394200e-03 7.81665300e-03            nan
       50 -1    0    0    0    0 +7.0068259383e-03 -1.0774494987e-02 +1.1360258004e+01 1.1360266372e+01 4.9935713700e-03 0.0000e+00 0.0000e+00
       11 -1    0    0    0    0 +4.1942004172e-19 -6.4494810872e-19 +6.8001116739e-16 5.1100000000e-04 5.1099893000e-04 0.0000e+00 1.0000e+00
       50  1    1    2    0    0 +8.8673676737e-03 -1.2653133273e-02 +1.1353370639e+01 1.1353382251e+01 4.9935713700e-03 0.0000e+00 0.0000e+00
       11  1    1    2    0    0 -1.8605417354e-03 +1.8786382859e-03 +6.8873650646e-03 7.3951210130e-03 5.1099893000e-04 0.0000e+00 1.0000e+00
<vert_displacement>
99.402014451238060
</vert_displacement>
</event>
<event>
 4   1200 +8.5212000e+10 1.53430600e-02 7.81665300e-03            nan
       50 -1    0    0    0    0 -3.7095881741e-02 +9.8755209780e-03 +2.3352141194e+01 2.3352173280e+01 4.9935713700e-03 0.0000e+00 0.0000e+00
       11 -1    0    0    0    0 -1.7195438263e-18 +4.5777025191e-19 +1.0824659864e-15 5.1100000000e-04 5.1099893000e-04 0.0000e+00 1.0000e+00
       50  1    1    2    0    0 -3.1431247462e-02 +2.3278990445e-02 +2.3144345749e+01 2.3144379337e+01 4.9935713700e-03 0.0000e+00 0.0000e+00
       11  1    1    2    0    0 -5.6646342790e-03 -1.3403469467e-02 +2.0779544524e-01 2.0830494295e-01 5.1099893000e-04 0.0000e+00 1.0000e+00
<vert_displacement>
487.83827177268353
</vert_displacement>
</event>
<event>
 4   1200 +8.5212000e+10 2.85004600e-02 7.81665300e-03            nan
       50 -1    0    0    0    0 -5.7698981119e-02 -8.9222948782e-02 +3.4571271955e+01 3.4571435600e+01 4.9935713700e-03 0.0000e+00 0.0000e+00
       11 -1    0    0    0    0 +7.6433705943e-19 +1.1819343250e-18 -4.5796483464e-16 5.1100000000e-04 5.1099893000e-04 0.0000e+00 1.0000e+00
       50  1    1    2    0    0 -7.5796185240e-02 -6.6928062464e-02 +3.3782900710e+01 3.3783052405e+01 4.9935713700e-03 0.0000e+00 0.0000e+00
       11  1    1    2    0    0 +1.8097204121e-02 -2.2294886317e-02 +7.8837124511e-01 7.8889419569e-01 5.1099893000e-04 0.0000e+00 1.0000e+00
<vert_displacement>
185.76304435322123
</vert_displacement>
</event>
<event>
 4   1200 +8.5212000e+10 9.68930900e-03 7.81665300e-03            nan
       50 -1    0    0    0    0 +7.5107921304e-02 -5.7615211704e-02 +2.5413624040e+01 2.5413800827e+01 4.9935713700e-03 0.0000e+00 0.0000e+00
       11 -1    0    0    0    0 +3.6502816771e-18 -2.8001274427e-18 +1.2351145468e-15 5.1100000000e-04 5.1099893000e-04 0.0000e+00 1.0000e+00
       50  1    1    2    0    0 +7.4563816313e-02 -4.9165585765e-02 +2.5345999975e+01 2.5346157829e+01 4.9935713700e-03 0.0000e+00 0.0000e+00
       11  1    1    2    0    0 +5.4410499108e-04 -8.4496259396e-03 +6.7624065325e-02 6.8153998854e-02 5.1099893000e-04 0.0000e+00 1.0000e+00
<vert_displacement>
145.26675085912092
</vert_displacement>
</event>
<event>
 4   1200 +8.5212000e+10 1.29499700e-02 7.81665300e-03            nan
       50 -1    0    0    0    0 +1.0781114513e-03 -1.9627669731e-03 +5.6201662508e+00 5.6201689153e+00 4.9935713700e-03 0.0000e+00 0.0000e+00
       11 -1    0    0    0    0 -5.0581104169e-20 +9.2085953268e-20 -2.6367794742e-16 5.1100000000e-04 5.1099893000e-04 0.0000e+00 1.0000e+00
       50  1    1    2    0    0 +6.8087588221e-03 +8.5567659760e-03 +5.4767898665e+00 5.4768030597e+00 4.9935713700e-03 0.0000e+00 0.0000e+00
       11  1    1    2    0    0 -5.7306473708e-03 -1.0519532949e-02 +1.4337638431e-01 1.4387685565e-01 5.1099893000e-04 0.0000e+00 1.0000e+00
<vert_displacement>
34.066735677154320
</vert_displacement>
</event>
<event>
 4   1200 +8.5212000e+10 3.58986800e-02 7.81665300e-03            nan
       50 -1    0    0    0    0 +3.7674744969e-02 -5.4015994993e-02 +2.1846352534e+01 2.1846452369e+01 4.9935713700e-03 0.0000e+00 0.0000e+00
       11 -1    0    0    0    0 +1.4598878296e-18 -2.0931075647e-18 +8.4654120983e-16 5.1100000000e-04 5.1099893000e-04 0.0000e+00 1.0000e+00
       50  1    1    2    0    0 -9.6370784660e-06 -4.7671180530e-02 +2.0530466179e+01 2.0530522131e+01 4.9935713700e-03 0.0000e+00 0.0000e+00
       11  1    1    2    0    0 +3.7684382048e-02 -6.3448144630e-03 +1.3158863559e+00 1.3164412376e+00 5.1099893000e-04 0.0000e+00 1.0000e+00
<vert_displacement>
430.93683425289925
</vert_displacement>
</event>
<event>
 4   1200 +8.5212000e+10 2.28353500e-02 7.81665300e-03            nan
       50 -1    0    0    0    0 +1.3326706644e-02 +1.3796563200e-02 +6.8206755926e+00 6.8207043934e+00 4.9935713700e-03 0.0000e+00 0.0000e+00
       11 -1    0    0    0    0 -2.3047981410e-19 -2.3860578661e-19 -1.1796072988e-16 5.1100000000e-04 5.1099893000e-04 0.0000e+00 1.0000e+00
       50  1    1    2    0    0 -6.6590604769e-03 +1.0198234794e-03 +6.2940598155e+00 6.2940654017e+00 4.9935713700e-03 0.0000e+00 0.0000e+00
       11  1    1    2    0    0 +1.9985767120e-02 +1.2776739721e-02 +5.2661577706e-01 5.2714999169e-01 5.1099893000e-04 0.0000e+00 1.0000e+00
<vert_displacement>
253.79740229412542
</vert_displacement>
</event>
<event>
 4   1200 +8.5212000e+10 1.23647300e-02 7.81665300e-03            nan
       50 -1    0    0    0    0 -6.1264443019e-02 -5.8759160658e-03 +1.9271968917e+01 1.9272067838e+01 4.9935713700e-03 0.0000e+00 0.0000e+00
       11 -1    0    0    0    0 -7.8527258073e-18 -7.5316048685e-19 +2.4702336333e-15 5.1100000000e-04 5.1099893000e-04 0.0000e+00 1.0000e+00
       50  1    1    2    0    0 -5.5945911006e-02 -1.6023997032e-02 +1.9145957084e+01 1.9146046180e+01 4.9935713700e-03 0.0000e+00 0.0000e+00
       11  1    1    2    0    0 -5.3185320132e-03 +1.0148080966e-02 +1.2601183329e-01 1.2653265815e-01 5.1099893000e-04 0.0000e+00 1.0000e+00
<vert_displacement>
488.20509116213179
</vert_displacement>
</event>
<event>
 4   1200 +8.5212000e+10 2.10846700e-02 7.81665300e-03            nan
       50 -1    0    0    0    0 +3.9630379886e-03 -2.6117463118e-03 +1.1638866656e+01 1.1638868695e+01 4.9935713700e-03 0.0000e+00 0.0000e+00
       11 -1    0    0    0    0 +1.2522286141e-19 -8.2525160590e-20 +3.6776134633e-16 5.1100000000e-04 5.1099893000e-04 0.0000e+00 1.0000e+00
       50  1    1    2    0    0 -1.4600041315e-03 +1.7277115363e-02 +1.1212617125e+01 1.1212631642e+01 4.9935713700e-03 0.0000e+00 0.0000e+00
       11  1    1    2    0    0 +5.4230421201e-03 -1.9888861675e-02 +4.2624953150e-01 4.2674805263e-01 5.1099893000e-04 0.0000e+00 1.0000e+00
<vert_displacement>
75.437857522649381
</vert_displacement>
</event>
<event>
 4   1200 +8.5212000e+10 1.96056000e-02 7.81665300e-03            nan
       50 -1    0    0    0    0 -1.3884713092e-01 -1.1140848511e-01 +4.4942901199e+01 4.4943254038e+01 4.9935713700e-03 0.0000e+00 0.0000e+00
       11 -1    0    0    0    0 +2.1865671448e-18 +1.7544628512e-18 -7.0776162606e-16 5.1100000000e-04 5.1099893000e-04 0.0000e+00 1.0000e+00
       50  1    1    2    0    0 -1.4341858583e-01 -9.2437385568e-02 +4.4588423122e+01 4.4588749870e+01 4.9935713700e-03 0.0000e+00 0.0000e+00
       11  1    1    2    0    0 +4.5714549075e-03 -1.8971099544e-02 +3.5447807729e-01 3.5501516758e-01 5.1099893000e-04 0.0000e+00 1.0000e+00
<vert_displacement>
449.91774641413201
</vert_displacement>
</event>
<event>
 4   1200 +8.5212000e+10 2.83221300e-02 7.81665300e-03            nan
       50 -1    0    0    0    0 -1.6951177144e-02 -2.1049033665e-02 +8.7820721124e+00 8.7821151169e+00 4.9935713700e-03 0.0000e+00 0.0000e+00
       11 -1    0    0    0    0 +1.4464879152e-18 +1.7961686415e-18 -7.4939699308e-16 5.1100000000e-04 5.1099893000e-04 0.0000e+00 1.0000e+00
       50  1    1    2    0    0 +8.4331380797e-03 -3.3615114312e-02 +7.9407412526e+00 7.9408184509e+00 4.9935713700e-03 0.0000e+00 0.0000e+00
       11  1    1    2    0    0 -2.5384315224e-02 +1.2566080647e-02 +8.4133085973e-01 8.4180766598e-01 5.1099893000e-04 0.0000e+00 1.0000e+00
<vert_displacement>
73.656900318342863
</vert_displacement>
</event>
<event>
 4   1200 +8.5212000e+10 1.82616000e-02 7.81665300e-03            nan
       50 -1    0    0    0    0 -5.9456175359e-02 -3.6512860736e-02 +2.7482024353e+01 2.7482113377e+01 4.9935713700e-03 0.0000e+00 0.0000e+00
       11 -1    0    0    0    0 +6.0047798201e-20 +3.6876184517e-20 -2.7755486163e-17 5.1100000000e-04 5.1099893000e-04 0.0000e+00 1.0000e+00
       50  1    1    2    0    0 -6.1558707177e-02 -1.8760306695e-02 +2.7176733646e+01 2.7176810299e+01 4.9935713700e-03 0.0000e+00 0.0000e+00
       11  1    1    2    0    0 +2.1025318183e-03 -1.7752554041e-02 +3.0529070679e-01 3.0581407847e-01 5.1099893000e-04 0.0000e+00 1.0000e+00
<vert_displacement>
491.84072578645106
</vert_displacement>
</event>
<event>
 4   1200 +8.5212000e+10 4.47827800e-02 7.81665300e-03            nan
       50 -1    0    0    0    0 +5.1395034960e-02 +2.1479634447e-02 +1.9791994387e+01 1.9792073403e+01 4.9935713700e-03 0.0000e+00 0.0000e+00
       11 -1    0    0    0    0 -4.3965291823e-18 -1.8374506360e-18 -1.6930834071e-15 5.1100000000e-04 5.1099893000e-04 0.0000e+00 1.0000e+00
       50  1    1    2    0    0 +9.0080371549e-02 +1.5316486589e-02 +1.7613961514e+01 1.7614199221e+01 4.9935713700e-03 0.0000e+00 0.0000e+00
       11  1    1    2    0    0 -3.8685336589e-02 +6.1631478580e-03 +2.1780328737e+00 2.1783851816e+00 5.1099893000e-04 0.0000e+00 1.0000e+00
<vert_displacement>
380.27860330290360
</vert_displacement>
</event>
<event>
 4   1200 +8.5212000e+10 1.89715200e-02 7.81665300e-03            nan
       50 -1    0    0    0    0 -1.0728284467e-01 +1.6102179127e-03 +3.2758984536e+01 3.2759160627e+01 4.9935713700e-03 0.0000e+00 0.0000e+00
       11 -1    0    0    0    0 +3.7267616290e-18 -5.5935302144e-20 -1.1379724965e-15 5.1100000000e-04 5.1099893000e-04 0.0000e+00 1.0000e+00
       50  1    1    2    0    0 -1.2449816616e-01 +1.2787507595e-03 +3.2427799880e+01 3.2428039278e+01 4.9935713700e-03 0.0000e+00 0.0000e+00
       11  1    1    2    0    0 +1.7215321492e-02 +3.3146715316e-04 +3.3118465608e-01 3.3163234870e-01 5.1099893000e-04 0.0000e+00 1.0000e+00
<vert_displacement>
394.84808036888722
</vert_displacement>
</event>
<event>
 4   1200 +8.5212000e+10 7.57133200e-03 7.81665300e-03            nan
       50 -1    0    0    0    0 +2.9129409952e-03 -4.7717353684e-04 +3.9911727468e+00 3.9911769622e+00 4.9935713700e-03 0.0000e+00 0.0000e+00
       11 -1    0    0    0    0 +3.0385930555e-20 -4.9775680238e-21 +4.1633352037e-17 5.1100000000e-04 5.1099893000e-04 0.0000e+00 1.0000e+00
       50  1    1    2    0    0 +8.2973997324e-03 -2.2468266486e-03 +3.9592150638e+00 3.9592275449e+00 4.9935713700e-03 0.0000e+00 0.0000e+00
       11  1    1    2    0    0 -5.3844587372e-03 +1.7696531117e-03 +3.1957682983e-02 3.2460417274e-02 5.1099893000e-04 0.0000e+00 1.0000e+00
<vert_displacement>
222.66811261591153
</vert_displacement>
</event>
<event>
 4   1200 +8.5212000e+10 1.66955000e-02 7.81665300e-03            nan
       50 -1    0    0    0    0 +1.2784744497e-02 -1.0598863448e-02 +8.6807012942e+00 8.6807186154e+00 4.9935713700e-03 0.0000e+00 0.0000e+00
       11 -1    0    0    0    0 +9.7084589475e-19 -8.0485480724e-19 +6.5919371460e-16 5.1100000000e-04 5.1099893000e-04 0.0000e+00 1.0000e+00
       50  1    1    2    0    0 +2.3736810913e-02 -2.1487156591e-02 +8.4247504707e+00 8.4248127910e+00 4.9935713700e-03 0.0000e+00 0.0000e+00
       11  1    1    2    0    0 -1.0952066416e-02 +1.0888293143e-02 +2.5595082351e-01 2.5641682445e-01 5.1099893000e-04 0.0000e+00 1.0000e+00
<vert_displacement>
326.41801365117067
</vert_displacement>
</event>
<event>
 4   1200 +8.5212000e+10 6.48715600e-03 7.81665300e-03            nan
       50 -1    0    0    0    0 +7.0690087662e-03 +1.7146642686e-02 +9.2842315184e+00 9.2842513861e+00 4.9935713700e-03 0.0000e+00 0.0000e+00
       11 -1    0    0    0    0 +2.6416297281e-20 +6.4075576301e-20 +3.4694400294e-17 5.1100000000e-04 5.1099893000e-04 0.0000e+00 1.0000e+00
       50  1    1    2    0    0 +3.0827657811e-03 +1.5949771187e-02 +9.2674269784e+00 9.2674425617e+00 4.9935713700e-03 0.0000e+00 0.0000e+00
       11  1    1    2    0    0 +3.9862429850e-03 +1.1968714996e-03 +1.6804539967e-02 1.7319824420e-02 5.1099893000e-04 0.0000e+00 1.0000e+00
<vert_displacement>
12.138530617589923
</vert_displacement>
</event>
<event>
 4   1200 +8.5212000e+10 1.49381600e-02 7.81665300e-03            nan
       50 -1    0    0    0    0 +7.4070515412e-03 +9.2934923980e-03 +5.4638685038e+00 5.4638837099e+00 4.9935713700e-03 0.0000e+00 0.0000e+00
       11 -1    0    0    0    0 -6.7727780576e-19 -8.4976810330e-19 -4.9959917932e-16 5.1100000000e-04 5.1099893000e-04 0.0000e+00 1.0000e+00
       50  1    1    2    0    0 +1.8060507026e-02 +7.2594774112e-05 +5.2624469032e+00 5.2624802642e+00 4.9935713700e-03 0.0000e+00 0.0000e+00
       11  1    1    2    0    0 -1.0653455485e-02 +9.2208976239e-03 +2.0142160061e-01 2.0191444569e-01 5.1099893000e-04 0.0000e+00 1.0000e+00
<vert_displacement>
217.72862318394039
</vert_displacement>
</event>
<event>
 4   1200 +8.5212000e+10 8.40449700e-03 7.81665300e-03            nan
       50 -1    0    0    0    0 +5.3994000091e-03 +1.4186061929e-02 +7.6873132391e+00 7.6873298465e+00 4.9935713700e-03 0.0000e+00 0.0000e+00
       11 -1    0    0    0    0 -1.4133779887e-19 -3.7134251292e-19 -2.0122753094e-16 5.1100000000e-04 5.1099893000e-04 0.0000e+00 1.0000e+00
       50  1    1    2    0    0 +4.2372640327e-03 +2.0768001557e-02 +7.6423187225e+00 7.6423497470e+00 4.9935713700e-03 0.0000e+00 0.0000e+00
       11  1    1    2    0    0 +1.1621359764e-03 -6.5819396273e-03 +4.4994516598e-02 4.5491099493e-02 5.1099893000e-04 0.0000e+00 1.0000e+00
<vert_displacement>
336.44336482740698
</vert_displacement>
</event>
<event>
 4   1200 +8.5212000e+10 1.45937000e-02 7.81665300e-03            nan
       50 -1    0    0    0    0 +2.1310727292e-02 -9.5227314525e-03 +7.4999978295e+00 7.5000358138e+00 4.9935713700e-03 0.0000e+00 0.0000e+00
       11 -1    0    0    0    0 -1.8927641901e-18 +8.4578460598e-19 -6.6613058876e-16 5.1100000000e-04 5.1099893000e-04 0.0000e+00 1.0000e+00
       50  1    1    2    0    0 +1.8299239776e-02 +4.2044865538e-03 +7.3112512131e+00 7.3112770278e+00 4.9935713700e-03 0.0000e+00 0.0000e+00
       11  1    1    2    0    0 +3.0114875159e-03 -1.3727218006e-02 +1.8874661640e-01 1.8926978601e-01 5.1099893000e-04 0.0000e+00 1.0000e+00
<vert_displacement>
373.52325611621546
</vert_displacement>
</event>
<event>
 4   1200 +8.5212000e+10 1.27791200e-02 7.81665300e-03            nan
       50 -1    0    0    0    0 -7.0917044018e-03 +5.4887908279e-03 +1.1646993962e+01 1.1646998485e+01 4.9935713700e-03 0.0000e+00 0.0000e+00
       11 -1    0    0    0    0 -1.2928505350e-18 +1.0006319717e-18 +2.1233009052e-15 5.1100000000e-04 5.1099893000e-04 0.0000e+00 1.0000e+00
       50  1    1    2    0    0 -3.3949494436e-03 -5.7701459317e-03 +1.1509988934e+01 1.1509991964e+01 4.9935713700e-03 0.0000e+00 0.0000e+00
       11  1    1    2    0    0 -3.6967549582e-03 +1.1258936760e-02 +1.3700502860e-01 1.3751752119e-01 5.1099893000e-04 0.0000e+00 1.0000e+00
<vert_displacement>
181.90945116528255
</vert_displacement>
</event>
<event>
 4   1200 +8.5212000e+10 2.42389200e-02 7.81665300e-03            nan
       50 -1    0    0    0    0 +2.0576332755e-02 -3.4029738473e-03 +8.2413236080e+00 8.2413515101e+00 4.9935713700e-03 0.0000e+00 0.0000e+00
       11 -1    0    0    0    0 +7.2762758267e-19 -1.2033716911e-19 +2.9143261078e-16 5.1100000000e-04 5.1099893000e-04 0.0000e+00 1.0000e+00
       50  1    1    2    0    0 -3.7761026791e-03 -9.4432415538e-03 +7.6480210463e+00 7.6480294387e+00 4.9935713700e-03 0.0000e+00 0.0000e+00
       11  1    1    2    0    0 +2.4352435434e-02 +6.0402677065e-03 +5.9330256165e-01 5.9383307143e-01 5.1099893000e-04 0.0000e+00 1.0000e+00
<vert_displacement>
128.92975964022926
</vert_displacement>
</event>
<event>
 4   1200 +8.5212000e+10 3.31920000e-02 7.81665300e-03            nan
       50 -1    0    0    0    0 -3.6188234311e-02 -6.8250047583e-04 +1.5028529581e+01 1.5028573996e+01 4.9935713700e-03 0.0000e+00 0.0000e+00
       11 -1    0    0    0    0 -2.1721171423e-19 -4.0965551689e-21 +9.0205359139e-17 5.1100000000e-04 5.1099893000e-04 0.0000e+00 1.0000e+00
       50  1    1    2    0    0 -1.8351740102e-02 -2.9769040266e-02 +1.3888280021e+01 1.3888324948e+01 4.9935713700e-03 0.0000e+00 0.0000e+00
       11  1    1    2    0    0 -1.7836494209e-02 +2.9086539790e-02 +1.1402495600e+00 1.1407600482e+00 5.1099893000e-04 0.0000e+00 1.0000e+00
<vert_displacement>
305.54314653732973
</vert_displacement>
</event>
<event>
 4   1200 +8.5212000e+10 6.08455200e-03 7.81665300e-03            nan
       50 -1    0    0    0    0 -4.9699296330e-02 -2.8692783644e-02 +1.7347047135e+01 1.7347142778e+01 4.9935713700e-03 0.0000e+00 0.0000e+00
       11 -1    0    0    0    0 -4.4530807477e-18 -2.5708871530e-18 +1.5543037293e-15 5.1100000000e-04 5.1099893000e-04 0.0000e+00 1.0000e+00
       50  1    1    2    0    0 -4.9778190248e-02 -3.2147868987e-02 +1.7335206846e+01 1.7335308843e+01 4.9935713700e-03 0.0000e+00 0.0000e+00
       11  1    1    2    0    0 +7.8893918094e-05 +3.4550853427e-03 +1.1840289568e-02 1.2344934829e-02 5.1099893000e-04 0.0000e+00 1.0000e+00
<vert_displacement>
207.62573546556524
</vert_displacement>
</event>
<event>
 4   1200 +8.5212000e+10 2.59320700e-02 7.81665300e-03            nan
       50 -1    0    0    0    0 +2.9608742291e-02 +4.7957651773e-03 +1.1601421932e+01 1.1601461781e+01 4.9935713700e-03 0.0000e+00 0.0000e+00
       11 -1    0    0    0    0 +8.3232969968e-19 +1.3481348686e-19 +3.2612692350e-16 5.1100000000e-04 5.1099893000e-04 0.0000e+00 1.0000e+00
       50  1    1    2    0    0 +1.4047003142e-02 +2.5868448126e-02 +1.0928736878e+01 1.0928777662e+01 4.9935713700e-03 0.0000e+00 0.0000e+00
       11  1    1    2    0    0 +1.5561739150e-02 -2.1072682949e-02 +6.7268505332e-01 6.7319511865e-01 5.1099893000e-04 0.0000e+00 1.0000e+00
<vert_displacement>
368.52879312184302
</vert_displacement>
</event>
<event>
 4   1200 +8.5212000e+10 8.58048200e-03 7.81665300e-03            nan
       50 -1    0    0    0    0 +3.8502475718e-03 -1.7092928450e-02 +7.7764011523e+00 7.7764224943e+00 4.9935713700e-03 0.0000e+00 0.0000e+00
       11 -1    0    0    0    0 +1.3398733574e-19 -5.9482822864e-19 +2.7061617535e-16 5.1100000000e-04 5.1099893000e-04 0.0000e+00 1.0000e+00
       50  1    1    2    0    0 -2.1494934785e-03 -1.3385308245e-02 +7.7284717255e+00 7.7284852290e+00 4.9935713700e-03 0.0000e+00 0.0000e+00
       11  1    1    2    0    0 +5.9997410503e-03 -3.7076202048e-03 +4.7929426833e-02 4.8448265363e-02 5.1099893000e-04 0.0000e+00 1.0000e+00
<vert_displacement>
328.98774802770214
</vert_displacement>
</event>
<event>
 4   1200 +8.5212000e+10 5.94171700e-03 7.81665300e-03            nan
       50 -1    0    0    0    0 +2.4252830534e-02 +2.7755886090e-03 +8.4131993924e+00 8.4132362891e+00 4.9935713700e-03 0.0000e+00 0.0000e+00
       11 -1    0    0    0    0 +1.7602418474e-18 +2.0144894897e-19 +6.1062009318e-16 5.1100000000e-04 5.1099893000e-04 0.0000e+00 1.0000e+00
       50  1    1    2    0    0 +2.2600896096e-02 +5.5534652614e-03 +8.4030452276e+00 8.4030789402e+00 4.9935713700e-03 0.0000e+00 0.0000e+00
       11  1    1    2    0    0 +1.6519344379e-03 -2.7778766524e-03 +1.0154164823e-02 1.0668348947e-02 5.1099893000e-04 0.0000e+00 1.0000e+00
<vert_displacement>
61.352753362812379
</vert_displacement>
</event>
<event>
 4   1200 +8.5212000e+10 1.97764500e-02 7.81665300e-03            nan
       50 -1    0    0    0    0 +3.6906820042e-03 -1.9390379254e-02 +9.7680250804e+00 9.7680462998e+00 4.9935713700e-03 0.0000e+00 0.0000e+00
       11 -1    0    0    0    0 +2.4382159627e-19 -1.2810080133e-18 +6.4531581555e-16 5.1100000000e-04 5.1099893000e-04 0.0000e+00 1.0000e+00
       50  1    1    2    0    0 -1.5508854508e-02 -2.0364097136e-02 +9.3954767943e+00 9.3955129902e+00 4.9935713700e-03 0.0000e+00 0.0000e+00
       11  1    1    2    0    0 +1.9199536513e-02 +9.7371788185e-04 +3.7254828610e-01 3.7304430960e-01 5.1099893000e-04 0.0000e+00 1.0000e+00
<vert_displacement>
300.11959553340023
</vert_displacement>
</event>
<event>
 4   1200 +8.5212000e+10 7.49798300e-02 7.81665300e-03            nan
       50 -1    0    0    0    0 +2.7203585208e-02 +3.0369105684e-02 +2.5698129028e+01 2.5698161856e+01 4.9935713700e-03 0.0000e+00 0.0000e+00
       11 -1    0    0    0    0 +5.4355820925e-19 +6.0680886640e-19 +5.1347750264e-16 5.1100000000e-04 5.1099893000e-04 0.0000e+00 1.0000e+00
       50  1    1    2    0    0 -3.8318947639e-02 +6.9302622624e-02 +1.7778538576e+01 1.7778715646e+01 4.9935713700e-03 0.0000e+00 0.0000e+00
       11  1    1    2    0    0 +6.5522532847e-02 -3.8933516940e-02 +7.9195904522e+00 7.9199572103e+00 5.1099893000e-04 0.0000e+00 1.0000e+00
<vert_displacement>
357.28734995595437
</vert_displacement>
</event>
<event>
 4   1200 +8.5212000e+10 1.71141100e-02 7.81665300e-03            nan
       50 -1    0    0    0    0 -3.5814855316e-02 +2.1970463805e-03 +1.3014524783e+01 1.3014575206e+01 4.9935713700e-03 0.0000e+00 0.0000e+00
       11 -1    0    0    0    0 -7.0652121463e-19 +4.3341229879e-20 +2.5673809865e-16 5.1100000000e-04 5.1099893000e-04 0.0000e+00 1.0000e+00
       50  1    1    2    0    0 -4.7847261836e-02 -8.0904671259e-03 +1.2746775884e+01 1.2746869231e+01 4.9935713700e-03 0.0000e+00 0.0000e+00
       11  1    1    2    0    0 +1.2032406520e-02 +1.0287513506e-02 +2.6774889821e-01 2.6821697440e-01 5.1099893000e-04 0.0000e+00 1.0000e+00
<vert_displacement>
209.49780099477664
</vert_displacement>
</event>
<event>
 4   1200 +8.5212000e+10 7.50687600e-03 7.81665300e-03            nan
       50 -1    0    0    0    0 +3.3590959202e-02 -2.0535824970e-03 +1.8251559583e+01 1.8251591293e+01 4.9935713700e-03 0.0000e+00 0.0000e+00
       11 -1    0    0    0    0 +2.5541237147e-19 -1.5614629294e-20 +1.3877764216e-16 5.1100000000e-04 5.1099893000e-04 0.0000e+00 1.0000e+00
       50  1    1    2    0    0 +3.6148413106e-02 -7.0083169971e-03 +1.8220760250e+01 1.8220798139e+01 4.9935713700e-03 0.0000e+00 0.0000e+00
       11  1    1    2    0    0 -2.5574539038e-03 +4.9547345002e-03 +3.0799333453e-02 3.1304153486e-02 5.1099893000e-04 0.0000e+00 1.0000e+00
<vert_displacement>
463.87918174053357
</vert_displacement>
</event>
<event>
 4   1200 +8.5212000e+10 8.86420600e-03 7.81665300e-03            nan
       50 -1    0    0    0    0 +5.7853285973e-02 +1.0515722549e-02 +3.1740498363e+01 3.1740553222e+01 4.9935713700e-03 0.0000e+00 0.0000e+00
       11 -1    0    0    0    0 +5.5901834621e-18 +1.0161016318e-18 +3.0669858426e-15 5.1100000000e-04 5.1099893000e-04 0.0000e+00 1.0000e+00
       50  1    1    2    0    0 +6.3561611429e-02 +1.4964860786e-02 +3.1687914660e+01 3.1687982335e+01 4.9935713700e-03 0.0000e+00 0.0000e+00
       11  1    1    2    0    0 -5.7083254559e-03 -4.4491382371e-03 +5.2583703037e-02 5.3081887265e-02 5.1099893000e-04 0.0000e+00 1.0000e+00
<vert_displacement>
378.44889732299276
</vert_displacement>
</event>
<event>
 4   1200 +8.5212000e+10 3.24764900e-02 7.81665300e-03            nan
       50 -1    0    0    0    0 -9.4293351126e-02 -1.7523277496e-02 +3.1625310895e+01 3.1625456715e+01 4.9935713700e-03 0.0000e+00 0.0000e+00
       11 -1    0    0    0    0 -1.2951165415e-17 -2.4068172649e-18 +4.3437276096e-15 5.1100000000e-04 5.1099893000e-04 0.0000e+00 1.0000e+00
       50  1    1    2    0    0 -6.0590678445e-02 -2.6624248483e-02 +3.0583408515e+01 3.0583480532e+01 4.9935713700e-03 0.0000e+00 0.0000e+00
       11  1    1    2    0    0 -3.3702672682e-02 +9.1009709865e-03 +1.0419023796e+00 1.0424871834e+00 5.1099893000e-04 0.0000e+00 1.0000e+00
<vert_displacement>
222.88356393762851
</vert_displacement>
</event>
<event>
 4   1200 +8.5212000e+10 1.09813000e-02 7.81665300e-03            nan
       50 -1    0    0    0    0 -4.9068137275e-03 +6.4911154153e-04 +1.5159280228e+01 1.5159281858e+01 4.9935713700e-03 0.0000e+00 0.0000e+00
       11 -1    0    0    0    0 +1.1230037817e-20 -1.4855968789e-21 -3.4694467670e-17 5.1100000000e-04 5.1099893000e-04 0.0000e+00 1.0000e+00
       50  1    1    2    0    0 -1.4032551776e-02 +4.0826266366e-03 +1.5065093770e+01 1.5065101687e+01 4.9935713700e-03 0.0000e+00 0.0000e+00
       11  1    1    2    0    0 +9.1257380489e-03 -3.4335150951e-03 +9.4186457429e-02 9.4691171731e-02 5.1099893000e-04 0.0000e+00 1.0000e+00
<vert_displacement>
466.61293013546856
</vert_displacement>
</event>
<event>
 4   1200 +8.5212000e+10 5.77428300e-03 7.81665300e-03            nan
       50 -1    0    0    0    0 +2.1031484364e-02 -7.9389669197e-03 +1.2651603694e+01 1.2651624651e+01 4.9935713700e-03 0.0000e+00 0.0000e+00
       11 -1    0    0    0    0 -6.6902431379e-19 +2.5254336802e-19 -4.0245521111e-16 5.1100000000e-04 5.1099893000e-04 0.0000e+00 -1.0000e+00
       50  1    1    2    0    0 +2.3896541249e-02 -8.2793755080e-03 +1.2643367379e+01 1.2643393659e+01 4.9935713700e-03 0.0000e+00 0.0000e+00
       11  1    1    2    0    0 -2.8650568854e-03 +3.4040858832e-04 +8.2363147696e-03 8.7419923275e-03 5.1099893000e-04 0.0000e+00 -1.0000e+00
<vert_displacement>
141.97073936536614
</vert_displacement>
</event>
<event>
 4   1200 +8.5212000e+10 3.33999200e-02 7.81665300e-03            nan
       50 -1    0    0    0    0 -8.2671391326e-02 +1.0076170746e-01 +4.5472364446e+01 4.5472551509e+01 4.9935713700e-03 0.0000e+00 0.0000e+00
       11 -1    0    0    0    0 +6.4590126315e-18 -7.8723864546e-18 -3.5526990852e-15 5.1100000000e-04 5.1099893000e-04 0.0000e+00 1.0000e+00
       50  1    1    2    0    0 -9.0173860032e-02 +1.2997008488e-01 +4.4378819901e+01 4.4379102113e+01 4.9935713700e-03 0.0000e+00 0.0000e+00
       11  1    1    2    0    0 +7.5024687062e-03 -2.9208377416e-02 +1.0935445444e+00 1.0939603961e+00 5.1099893000e-04 0.0000e+00 1.0000e+00
<vert_displacement>
387.32497054058217
</vert_displacement>
</event>
<event>
 4   1200 +8.5212000e+10 1.89780200e-02 7.81665300e-03            nan
       50 -1    0    0    0    0 +7.9957725099e-02 -1.1037770126e-01 +4.2258653152e+01 4.2258873241e+01 4.9935713700e-03 0.0000e+00 0.0000e+00
       11 -1    0    0    0    0 -3.1509681120e-19 +4.3497562809e-19 -1.6653258753e-16 5.1100000000e-04 5.1099893000e-04 0.0000e+00 1.0000e+00
       50  1    1    2    0    0 +8.2788153851e-02 -1.2749425012e-01 +4.1927996317e+01 4.1928272189e+01 4.9935713700e-03 0.0000e+00 0.0000e+00
       11  1    1    2    0    0 -2.8304287523e-03 +1.7116548857e-02 +3.3065683526e-01 3.3111205263e-01 5.1099893000e-04 0.0000e+00 1.0000e+00
<vert_displacement>
25.925301893061381
</vert_displacement>
</event>
<event>
 4   1200 +8.5212000e+10 1.67629200e-02 7.81665300e-03            nan
       50 -1    0    0    0    0 -1.6100329922e-02 +3.5640008226e-02 +2.5601217315e+01 2.5601247672e+01 4.9935713700e-03 0.0000e+00 0.0000e+00
       11 -1    0    0    0    0 -8.4657537130e-19 +1.8739959581e-18 +1.3461438467e-15 5.1100000000e-04 5.1099893000e-04 0.0000e+00 -1.0000e+00
       50  1    1    2    0    0 -3.0927969402e-02 +2.9679164566e-02 +2.5348159713e+01 2.5348196448e+01 4.9935713700e-03 0.0000e+00 0.0000e+00
       11  1    1    2    0    0 +1.4827639480e-02 +5.9608436599e-03 +2.5305760180e-01 2.5356222412e-01 5.1099893000e-04 0.0000e+00 -1.0000e+00
<vert_displacement>
291.49172937260147
</vert_displacement>
</event>
<event>
 4   1200 +8.5212000e+10 1.65119200e-02 7.81665300e-03            nan
       50 -1    0    0    0    0 -3.0285640501e-02 +9.8167673020e-04 +1.6162030322e+01 1.6162059499e+01 4.9935713700e-03 0.0000e+00 0.0000e+00
       11 -1    0    0    0    0 -3.5627134415e-18 +1.1548155575e-19 +1.9012535881e-15 5.1100000000e-04 5.1099893000e-04 0.0000e+00 1.0000e+00
       50  1    1    2    0    0 -2.2032390110e-02 -1.2707776298e-02 +1.5915908825e+01 1.5915929931e+01 4.9935713700e-03 0.0000e+00 0.0000e+00
       11  1    1    2    0    0 -8.2532503916e-03 +1.3689453028e-02 +2.4612149769e-01 2.4664056846e-01 5.1099893000e-04 0.0000e+00 1.0000e+00
<vert_displacement>
479.25020048127897
</vert_displacement>
</event>
<event>
 4   1200 +8.5212000e+10 8.27713000e-03 7.81665300e-03            nan
       50 -1    0    0    0    0 +4.2408923781e-02 -2.5370458836e-02 +1.7814558491e+01 1.7814627735e+01 4.9935713700e-03 0.0000e+00 0.0000e+00
       11 -1    0    0    0    0 +3.4358492379e-18 -2.0554417298e-18 +1.4432843788e-15 5.1100000000e-04 5.1099893000e-04 0.0000e+00 1.0000e+00
       50  1    1    2    0    0 +4.8906055667e-02 -2.5481805899e-02 +1.7771801683e+01 1.7771887944e+01 4.9935713700e-03 0.0000e+00 0.0000e+00
       11  1    1    2    0    0 -6.4971318862e-03 +1.1134706281e-04 +4.2756807878e-02 4.3250790290e-02 5.1099893000e-04 0.0000e+00 1.0000e+00
<vert_displacement>
192.91536231084243
</vert_displacement>
</event>
<event>
 4   1200 +8.5212000e+10 2.45929000e-02 7.81665300e-03            nan
       50 -1    0    0    0    0 -7.0602613591e-03 -7.7374240166e-03 +7.2695190267e+00 7.2695282880e+00 4.9935713700e-03 0.0000e+00 0.0000e+00
       11 -1    0    0    0    0 -1.1456549037e-19 -1.2555367735e-19 +1.1796107392e-16 5.1100000000e-04 5.1099893000e-04 0.0000e+00 1.0000e+00
       50  1    1    2    0    0 -2.3066160601e-03 +1.6643217963e-02 +6.6489625375e+00 6.6489856428e+00 4.9935713700e-03 0.0000e+00 0.0000e+00
       11  1    1    2    0    0 -4.7536452989e-03 -2.4380641979e-02 +6.2055648915e-01 6.2105364518e-01 5.1099893000e-04 0.0000e+00 1.0000e+00
<vert_displacement>
118.70849534308537
</vert_displacement>
</event>
<event>
 4   1200 +8.5212000e+10 2.47635400e-02 7.81665300e-03            nan
       50 -1    0    0    0    0 -2.3965461052e-02 +1.2506571285e-02 +7.4391334384e+00 7.4391842300e+00 4.9935713700e-03 0.0000e+00 0.0000e+00
       11 -1    0    0    0    0 -8.9415088496e-19 +4.6661993098e-19 +2.7755392365e-16 5.1100000000e-04 5.1099893000e-04 0.0000e+00 1.0000e+00
       50  1    1    2    0    0 +6.6684680367e-04 +2.0239313028e-02 +6.8101610350e+00 6.8101929732e+00 4.9935713700e-03 0.0000e+00 0.0000e+00
       11  1    1    2    0    0 -2.4632307856e-02 -7.7327417429e-03 +6.2897240342e-01 6.2950225676e-01 5.1099893000e-04 0.0000e+00 1.0000e+00
<vert_displacement>
64.013449289861256
</vert_displacement>
</event>
<event>
 4   1200 +8.5212000e+10 7.63658500e-03 7.81665300e-03            nan
       50 -1    0    0    0    0 -1.2961453724e-01 -5.1789371811e-02 +3.8504034656e+01 3.8504287966e+01 4.9935713700e-03 0.0000e+00 0.0000e+00
       11 -1    0    0    0    0 -8.8760239288e-19 -3.5465443402e-19 +2.6367623589e-16 5.1100000000e-04 5.1099893000e-04 0.0000e+00 1.0000e+00
       50  1    1    2    0    0 -1.2533322213e-01 -4.7747674860e-02 +3.8471362998e+01 3.8471597109e+01 4.9935713700e-03 0.0000e+00 0.0000e+00
       11  1    1    2    0    0 -4.2813151121e-03 -4.0416969513e-03 +3.2671657582e-02 3.3201856912e-02 5.1099893000e-04 0.0000e+00 1.0000e+00
<vert_displacement>
453.41193560130716
</vert_displacement>
</event>
<event>
 4   1200 +8.5212000e+10 5.64147500e-02 7.81665300e-03            nan
       50 -1    0    0    0    0 +6.6372675004e-03 -1.9985152265e-02 +1.8090488825e+01 1.8090501771e+01 4.9935713700e-03 0.0000e+00 0.0000e+00
       11 -1    0    0    0    0 +3.3095757395e-19 -9.9653019987e-19 +9.0205559635e-16 5.1100000000e-04 5.1099893000e-04 0.0000e+00 1.0000e+00
       50  1    1    2    0    0 +4.1060937201e-03 -7.1797639241e-02 +1.4134345720e+01 1.4134529551e+01 4.9935713700e-03 0.0000e+00 0.0000e+00
       11  1    1    2    0    0 +2.5311737803e-03 +5.1812486976e-02 +3.9561431053e+00 3.9564832201e+00 5.1099893000e-04 0.0000e+00 1.0000e+00
<vert_displacement>
217.81970417141696
</vert_displacement>
</event>
<event>
 4   1200 +8.5212000e+10 6.68100000e-03 7.81665300e-03            nan
       50 -1    0    0    0    0 -1.5723438137e-02 +4.2508824534e-03 +4.9352458105e+00 4.9352752145e+00 4.9935713700e-03 0.0000e+00 0.0000e+00
       11 -1    0    0    0    0 -6.1899143696e-19 +1.6734634087e-19 +1.9428797120e-16 5.1100000000e-04 5.1099893000e-04 0.0000e+00 1.0000e+00
       50  1    1    2    0    0 -1.7429179138e-02 +1.6281290723e-04 +4.9158895801e+00 4.9159230163e+00 4.9935713700e-03 0.0000e+00 0.0000e+00
       11  1    1    2    0    0 +1.7057410007e-03 +4.0880695461e-03 +1.9356230396e-02 1.9863198132e-02 5.1099893000e-04 0.0000e+00 1.0000e+00
<vert_displacement>
301.94381406281587
</vert_displacement>
</event>
<event>
 4   1200 +8.5212000e+10 8.51434600e-03 7.81665300e-03            nan
       50 -1    0    0    0    0 +3.2599184729e-02 -1.9470667186e-02 +1.2117214069e+01 1.2117274593e+01 4.9935713700e-03 0.0000e+00 0.0000e+00
       11 -1    0    0    0    0 +7.2804241292e-19 -4.3484128936e-19 +2.7061553356e-16 5.1100000000e-04 5.1099893000e-04 0.0000e+00 1.0000e+00
       50  1    1    2    0    0 +3.8367543866e-02 -2.2975842722e-02 +1.2070475672e+01 1.2070559550e+01 4.9935713700e-03 0.0000e+00 0.0000e+00
       11  1    1    2    0    0 -5.7683591373e-03 +3.5051755362e-03 +4.6738397016e-02 4.7226042584e-02 5.1099893000e-04 0.0000e+00 1.0000e+00
<vert_displacement>
318.17115599151339
</vert_displacement>
</event>
<event>
 4   1200 +8.5212000e+10 6.37352400e-02 7.81665300e-03            nan
       50 -1    0    0    0    0 -4.1587261649e-03 +3.5004574655e-02 +1.6728578729e+01 1.6728616615e+01 4.9935713700e-03 0.0000e+00 0.0000e+00
       11 -1    0    0    0    0 -1.6215054651e-19 +1.3648436289e-18 +6.5225457884e-16 5.1100000000e-04 5.1099893000e-04 0.0000e+00 1.0000e+00
       50  1    1    2    0    0 -5.1936539186e-02 +6.1586359427e-02 +1.0317809147e+01 1.0318124869e+01 4.9935713700e-03 0.0000e+00 0.0000e+00
       11  1    1    2    0    0 +4.7777813021e-02 -2.6581784772e-02 +6.4107695819e+00 6.4110027456e+00 5.1099893000e-04 0.0000e+00 1.0000e+00
<vert_displacement>
93.286363766381996
</vert_displacement>
</event>
<event>
 4   1200 +8.5212000e+10 5.92499200e-03 7.81665300e-03            nan
       50 -1    0    0    0    0 +1.5426053574e-02 -2.0630545514e-03 +4.7758769068e+00 4.7759048759e+00 4.9935713700e-03 0.0000e+00 0.0000e+00
       11 -1    0    0    0    0 -8.5167372365e-19 +1.1390141642e-19 -2.6367656830e-16 5.1100000000e-04 5.1099893000e-04 0.0000e+00 1.0000e+00
       50  1    1    2    0    0 +1.2478300982e-02 -3.3507672616e-03 +4.7659129659e+00 4.7659330954e+00 4.9935713700e-03 0.0000e+00 0.0000e+00
       11  1    1    2    0    0 +2.9477525925e-03 +1.2877127102e-03 +9.9639408946e-03 1.0482780520e-02 5.1099893000e-04 0.0000e+00 1.0000e+00
<vert_displacement>
409.70376116919437
</vert_displacement>
</event>
<event>
 4   1200 +8.5212000e+10 2.11096500e-02 7.81665300e-03            nan
       50 -1    0    0    0    0 +9.7543409537e-03 +3.1092628681e-03 +4.1091675154e+00 4.1091833033e+00 4.9935713700e-03 0.0000e+00 0.0000e+00
       11 -1    0    0    0    0 +8.2357468579e-20 +2.6252006176e-20 +3.4694361838e-17 5.1100000000e-04 5.1099893000e-04 0.0000e+00 1.0000e+00
       50  1    1    2    0    0 -9.8254050433e-03 -6.1457951575e-03 +3.6447293254e+00 3.6447511713e+00 4.9935713700e-03 0.0000e+00 0.0000e+00
       11  1    1    2    0    0 +1.9579745997e-02 +9.2550580256e-03 +4.6443819000e-01 4.6494313201e-01 5.1099893000e-04 0.0000e+00 1.0000e+00
<vert_displacement>
201.07611837319675
</vert_displacement>
</event>
<event>
 4   1200 +8.5212000e+10 2.30595200e-02 7.81665300e-03            nan
       50 -1    0    0    0    0 +6.6898778877e-03 -4.1245163533e-03 +7.7320808212e+00 7.7320864278e+00 4.9935713700e-03 0.0000e+00 0.0000e+00
       11 -1    0    0    0    0 +1.8010803296e-20 -1.1104216546e-20 +2.0816670959e-17 5.1100000000e-04 5.1099893000e-04 0.0000e+00 1.0000e+00
       50  1    1    2    0    0 -1.1816028858e-02 +9.6201512091e-03 +7.1993529826e+00 7.1993708385e+00 4.9935713700e-03 0.0000e+00 0.0000e+00
       11  1    1    2    0    0 +1.8505906745e-02 -1.3744667562e-02 +5.3272783857e-01 5.3322658934e-01 5.1099893000e-04 0.0000e+00 1.0000e+00
<vert_displacement>
278.46577247033309
</vert_displacement>
</event>
<event>
 4   1200 +8.5212000e+10 6.99193000e-02 7.81665300e-03            nan
       50 -1    0    0    0    0 -4.9252575956e-02 -4.4403280045e-02 +2.3117768658e+01 2.3117864307e+01 4.9935713700e-03 0.0000e+00 0.0000e+00
       11 -1    0    0    0    0 +2.1287957208e-18 +1.9191993661e-18 -9.9919661132e-16 5.1100000000e-04 5.1099893000e-04 0.0000e+00 1.0000e+00
       50  1    1    2    0    0 +1.3146222674e-02 -8.2010974829e-02 +1.6410661250e+01 1.6410872196e+01 4.9935713700e-03 0.0000e+00 0.0000e+00
       11  1    1    2    0    0 -6.2398798630e-02 +3.7607694784e-02 +6.7071074076e+00 6.7075031112e+00 5.1099893000e-04 0.0000e+00 1.0000e+00
<vert_displacement>
430.07178217958460
</vert_displacement>
</event>
<event>
 4   1200 +8.5212000e+10 2.45638500e-02 7.81665300e-03            nan
       50 -1    0    0    0    0 +1.3369864367e-02 -7.9164752104e-03 +3.9246083086e+00 3.9246422430e+00 4.9935713700e-03 0.0000e+00 0.0000e+00
       11 -1    0    0    0    0 -3.0729880996e-19 +1.8195572853e-19 -9.0204913805e-17 5.1100000000e-04 5.1099893000e-04 0.0000e+00 1.0000e+00
       50  1    1    2    0    0 -9.5897033132e-03 +5.8509831732e-03 +3.2376053796e+00 3.2376287196e+00 4.9935713700e-03 0.0000e+00 0.0000e+00
       11  1    1    2    0    0 +2.2959567680e-02 -1.3767458384e-02 +6.8700292897e-01 6.8752452334e-01 5.1099893000e-04 0.0000e+00 1.0000e+00
<vert_displacement>
268.78284457903044
</vert_displacement>
</event>
<event>
 4   1200 +8.5212000e+10 9.26947600e-03 7.81665300e-03            nan
       50 -1    0    0    0    0 +7.0851249655e-02 -3.1819922505e-02 +5.4270106292e+01 5.4270162099e+01 4.9935713700e-03 0.0000e+00 0.0000e+00
       11 -1    0    0    0    0 -1.5943707293e-18 +7.1604598787e-19 -1.2212440764e-15 5.1100000000e-04 5.1099893000e-04 0.0000e+00 1.0000e+00
       50  1    1    2    0    0 +7.4015056916e-02 -2.4680096582e-02 +5.4210365342e+01 5.4210421718e+01 4.9935713700e-03 0.0000e+00 0.0000e+00
       11  1    1    2    0    0 -3.1638072614e-03 -7.1398259226e-03 +5.9740949723e-02 6.0251381597e-02 5.1099893000e-04 0.0000e+00 1.0000e+00
<vert_displacement>
35.819708730740146
</vert_displacement>
</event>
<event>
 4   1200 +8.5212000e+10 1.79117300e-02 7.81665300e-03            nan
       50 -1    0    0    0    0 +3.6247830341e-02 -4.1279455229e-02 +1.8487206296e+01 1.8487288591e+01 4.9935713700e-03 0.0000e+00 0.0000e+00
       11 -1    0    0    0    0 +1.2516614774e-18 -1.4254068017e-18 +6.3837542073e-16 5.1100000000e-04 5.1099893000e-04 0.0000e+00 1.0000e+00
       50  1    1    2    0    0 +2.7241928456e-02 -5.5617347113e-02 +1.8192969438e+01 1.8193075532e+01 4.9935713700e-03 0.0000e+00 0.0000e+00
       11  1    1    2    0    0 +9.0059018852e-03 +1.4337891884e-02 +2.9423685847e-01 2.9472405978e-01 5.1099893000e-04 0.0000e+00 1.0000e+00
<vert_displacement>
415.51952230987177
</vert_displacement>
</event>
<event>
 4   1200 +8.5212000e+10 1.02120200e-02 7.81665300e-03            nan
       50 -1    0    0    0    0 +2.3248327776e-03 +4.2841792258e-03 +3.9965714996e+00 3.9965775916e+00 4.9935713700e-03 0.0000e+00 0.0000e+00
       11 -1    0    0    0    0 -1.6549234655e-19 -3.0496768625e-19 -2.8449443847e-16 5.1100000000e-04 5.1099893000e-04 0.0000e+00 1.0000e+00
       50  1    1    2    0    0 +9.3620656142e-03 -1.2022572244e-03 +3.9173414093e+00 3.9173559637e+00 4.9935713700e-03 0.0000e+00 0.0000e+00
       11  1    1    2    0    0 -7.0372328366e-03 +5.4864364503e-03 +7.9230090319e-02 7.9732627969e-02 5.1099893000e-04 0.0000e+00 1.0000e+00
<vert_displacement>
389.49438095629131
</vert_displacement>
</event>
<event>
 4   1200 +8.5212000e+10 1.12060300e-02 7.81665300e-03            nan
       50 -1    0    0    0    0 -2.3153714712e-02 +4.7726821597e-04 +1.9362206247e+01 1.9362220741e+01 4.9935713700e-03 0.0000e+00 0.0000e+00
       11 -1    0    0    0    0 -2.2735595569e-18 +4.6864951353e-20 +1.9012555697e-15 5.1100000000e-04 5.1099893000e-04 0.0000e+00 1.0000e+00
       50  1    1    2    0    0 -3.2315533916e-02 +4.2850037597e-03 +1.9263212912e+01 1.9263241142e+01 4.9935713700e-03 0.0000e+00 0.0000e+00
       11  1    1    2    0    0 +9.1618192043e-03 -3.8077355438e-03 +9.8993334872e-02 9.9490598803e-02 5.1099893000e-04 0.0000e+00 1.0000e+00
<vert_displacement>
468.27314016775898
</vert_displacement>
</event>
<event>
 4   1200 +8.5212000e+10 1.22404700e-02 7.81665300e-03            nan
       50 -1    0    0    0    0 -3.8136198315e-02 +1.0059718995e-02 +1.3718315723e+01 1.3718373328e+01 4.9935713700e-03 0.0000e+00 0.0000e+00
       11 -1    0    0    0    0 -3.3949839355e-18 +8.9554244766e-19 +1.2212402798e-15 5.1100000000e-04 5.1099893000e-04 0.0000e+00 1.0000e+00
       50  1    1    2    0    0 -2.7900254943e-02 +4.7713644407e-03 +1.3595027713e+01 1.3595058096e+01 4.9935713700e-03 0.0000e+00 0.0000e+00
       11  1    1    2    0    0 -1.0235943372e-02 +5.2883545542e-03 +1.2328800972e-01 1.2382623184e-01 5.1099893000e-04 0.0000e+00 1.0000e+00
<vert_displacement>
99.022186759162807
</vert_displacement>
</event>
<event>
 4   1200 +8.5212000e+10 1.75266000e-02 7.81665300e-03            nan
       50 -1    0    0    0    0 +1.7131251476e-03 +2.9368178467e-02 +1.2400180499e+01 1.2400216400e+01 4.9935713700e-03 0.0000e+00 0.0000e+00
       11 -1    0    0    0    0 -3.5469235879e-20 -6.0805064409e-19 -2.5673835195e-16 5.1100000000e-04 5.1099893000e-04 0.0000e+00 1.0000e+00
       50  1    1    2    0    0 -1.4455036214e-02 +2.3997990747e-02 +1.2117558312e+01 1.2117591725e+01 4.9935713700e-03 0.0000e+00 0.0000e+00
       11  1    1    2    0    0 +1.6168161361e-02 +5.3701877196e-03 +2.8262218762e-01 2.8313567492e-01 5.1099893000e-04 0.0000e+00 1.0000e+00
<vert_displacement>
46.046058772283402
</vert_displacement>
</event>
<event>
 4   1200 +8.5212000e+10 1.47452700e-02 7.81665300e-03            nan
       50 -1    0    0    0    0 -1.1365652766e-02 -8.6636213626e-03 +1.2309861130e+01 1.2309870439e+01 4.9935713700e-03 0.0000e+00 0.0000e+00
       11 -1    0    0    0    0 -1.2364839789e-18 -9.4252650814e-19 +1.3392056210e-15 5.1100000000e-04 5.1099893000e-04 0.0000e+00 1.0000e+00
       50  1    1    2    0    0 -7.7540440887e-03 -2.1971001492e-02 +1.2118523690e+01 1.2118547117e+01 4.9935713700e-03 0.0000e+00 0.0000e+00
       11  1    1    2    0    0 -3.6116086773e-03 +1.3307380129e-02 +1.9133743984e-01 1.9183432198e-01 5.1099893000e-04 0.0000e+00 1.0000e+00
<vert_displacement>
143.71309428498819
</vert_displacement>
</event>
<event>
 4   1200 +8.5212000e+10 1.90550500e-02 7.81665300e-03            nan
       50 -1    0    0    0    0 -8.8300028671e-02 -3.6924529812e-02 +2.9187750589e+01 2.9187907937e+01 4.9935713700e-03 0.0000e+00 0.0000e+00
       11 -1    0    0    0    0 +0.0000000000e+00 -0.0000000000e+00 +0.0000000000e+00 5.1100000000e-04 5.1099893000e-04 0.0000e+00 1.0000e+00
       50  1    1    2    0    0 -6.9869465221e-02 -4.2397904362e-02 +2.8853070210e+01 2.8853186389e+01 4.9935713700e-03 0.0000e+00 0.0000e+00
       11  1    1    2    0    0 -1.8430563450e-02 +5.4733745505e-03 +3.3468037984e-01 3.3523254805e-01 5.1099893000e-04 0.0000e+00 1.0000e+00
<vert_displacement>
173.57244526387640
</vert_displacement>
</event>
<event>
 4   1200 +8.5212000e+10 5.98524400e-03 7.81665300e-03            nan
       50 -1    0    0    0    0 -8.4032350982e-03 +2.0513017036e-02 +9.3009272097e+00 9.3009549668e+00 4.9935713700e-03 0.0000e+00 0.0000e+00
       11 -1    0    0    0    0 +6.2691589636e-21 -1.5303554300e-20 -6.9388741960e-18 5.1100000000e-04 5.1099893000e-04 0.0000e+00 1.0000e+00
       50  1    1    2    0    0 -1.1668153158e-02 +2.0083685916e-02 +9.2902593032e+00 9.2902896810e+00 4.9935713700e-03 0.0000e+00 0.0000e+00
       11  1    1    2    0    0 +3.2649180598e-03 +4.2933112059e-04 +1.0667906499e-02 1.1176285793e-02 5.1099893000e-04 0.0000e+00 1.0000e+00
<vert_displacement>
150.89742483887710
</vert_displacement>
</event>
<event>
 4   1200 +8.5212000e+10 6.12183900e-03 7.81665300e-03            nan
       50 -1    0    0    0    0 +9.6929690990e-02 +6.2805781589e-02 +2.9518949586e+01 2.9519175963e+01 4.9935713700e-03 0.0000e+00 0.0000e+00
       11 -1    0    0    0    0 +6.3341398474e-18 +4.1042182199e-18 +1.9289977397e-15 5.1100000000e-04 5.1099893000e-04 0.0000e+00 1.0000e+00
       50  1    1    2    0    0 +9.7906000106e-02 +6.6171936136e-02 +2.9506662615e+01 2.9506899666e+01 4.9935713700e-03 0.0000e+00 0.0000e+00
       11  1    1    2    0    0 -9.7630911598e-04 -3.3661545467e-03 +1.2286971005e-02 1.2787296520e-02 5.1099893000e-04 0.0000e+00 1.0000e+00
<vert_displacement>
333.01080856596110
</vert_displacement>
</event>
<event>
 4   1200 +8.5212000e+10 4.99536700e-03 7.81665300e-03            nan
       50 -1    0    0    0    0 +3.5177607453e-02 +4.4716173730e-02 +1.7368694027e+01 1.7368787929e+01 4.9935713700e-03 0.0000e+00 0.0000e+00
       11 -1    0    0    0    0 -5.1155040700e-18 -6.5025959771e-18 -2.5257438302e-15 5.1100000000e-04 5.1099893000e-04 0.0000e+00 1.0000e+00
       50  1    1    2    0    0 +3.5201553328e-02 +4.4847898235e-02 +1.7368676087e+01 1.7368770378e+01 4.9935713700e-03 0.0000e+00 0.0000e+00
       11  1    1    2    0    0 -2.3945875087e-05 -1.3172450508e-04 +1.7939545069e-05 5.2855130679e-04 5.1099893000e-04 0.0000e+00 1.0000e+00
<vert_displacement>
381.94762941757540
</vert_displacement>
</event>
<event>
 4   1200 +8.5212000e+10 1.10225500e-02 7.81665300e-03            nan
       50 -1    0    0    0    0 -2.4271791591e-02 -1.4343643456e-02 +1.5399539750e+01 1.5399566367e+01 4.9935713700e-03 0.0000e+00 0.0000e+00
       11 -1    0    0    0    0 +5.2495835234e-19 +3.1022907424e-19 -3.3306634921e-16 5.1100000000e-04 5.1099893000e-04 0.0000e+00 1.0000e+00
       50  1    1    2    0    0 -2.0511219713e-02 -5.1159840232e-03 +1.5304480930e+01 1.5304496344e+01 4.9935713700e-03 0.0000e+00 0.0000e+00
       11  1    1    2    0    0 -3.7605718782e-03 -9.2276594330e-03 +9.5058820085e-02 9.5581023197e-02 5.1099893000e-04 0.0000e+00 1.0000e+00
<vert_displacement>
269.08180509123531
</vert_displacement>
</event>
<event>
 4   1200 +8.5212000e+10 2.40085100e-02 7.81665300e-03            nan
       50 -1    0    0    0    0 +4.5856006629e-02 +6.3835842923e-02 +3.5805502232e+01 3.5805588849e+01 4.9935713700e-03 0.0000e+00 0.0000e+00
       11 -1    0    0    0    0 -2.5593409777e-18 -3.5628416133e-18 -1.9983966295e-15 5.1100000000e-04 5.1099893000e-04 0.0000e+00 1.0000e+00
       50  1    1    2    0    0 +2.9870196429e-02 +8.0687817869e-02 +3.5257489204e+01 3.5257594538e+01 4.9935713700e-03 0.0000e+00 0.0000e+00
       11  1    1    2    0    0 +1.5985810200e-02 -1.6851974946e-02 +5.4801302816e-01 5.4850531022e-01 5.1099893000e-04 0.0000e+00 1.0000e+00
<vert_displacement>
307.00581728837790
</vert_displacement>
</event>
<event>
 4   1200 +8.5212000e+10 4.93285700e-02 7.81665300e-03            nan
       50 -1    0    0    0    0 -2.7378224889e-02 -4.6497870364e-03 +9.5747231721e+00 9.5747647462e+00 4.9935713700e-03 0.0000e+00 0.0000e+00
       11 -1    0    0    0    0 -2.6190356611e-18 -4.4480451580e-19 +9.1593014285e-16 5.1100000000e-04 5.1099893000e-04 0.0000e+00 1.0000e+00
       50  1    1    2    0    0 +1.7080191213e-03 -4.9139230808e-02 +4.2551603522e+00 4.2554473490e+00 4.9935713700e-03 0.0000e+00 0.0000e+00
       11  1    1    2    0    0 -2.9086244010e-02 +4.4489443771e-02 +5.3195628199e+00 5.3198283972e+00 5.1099893000e-04 0.0000e+00 1.0000e+00
<vert_displacement>
184.34238483214972
</vert_displacement>
</event>
<event>
 4   1200 +8.5212000e+10 1.46208900e-02 7.81665300e-03            nan
       50 -1    0    0    0    0 +1.0490470295e-02 +9.3408527903e-03 +6.0561317788e+00 6.0561501268e+00 4.9935713700e-03 0.0000e+00 0.0000e+00
       11 -1    0    0    0    0 -1.3101324955e-18 -1.1665592134e-18 -7.5633740118e-16 5.1100000000e-04 5.1099893000e-04 0.0000e+00 1.0000e+00
       50  1    1    2    0    0 +2.3775115778e-02 +7.1861676438e-03 +5.8652895943e+00 5.8653443086e+00 4.9935713700e-03 0.0000e+00 0.0000e+00
       11  1    1    2    0    0 -1.3284645483e-02 +2.1546851465e-03 +1.9084218441e-01 1.9131681825e-01 5.1099893000e-04 0.0000e+00 1.0000e+00
<vert_displacement>
76.453757289687189
</vert_displacement>
</event>
<event>
 4   1200 +8.5212000e+10 5.77206800e-03 7.81665300e-03            nan
       50 -1    0    0    0    0 +1.6763385836e-03 -1.7509292468e-03 +1.4906643187e+00 1.4906746535e+00 4.9935713700e-03 0.0000e+00 0.0000e+00
       11 -1    0    0    0    0 +7.0228609136e-20 -7.3353513963e-20 +6.2449962567e-17 5.1100000000e-04 5.1099893000e-04 0.0000e+00 1.0000e+00
       50  1    1    2    0    0 -9.4644244225e-04 -4.9601224189e-04 +1.4824188815e+00 1.4824276771e+00 4.9935713700e-03 0.0000e+00 0.0000e+00
       11  1    1    2    0    0 +2.6227810258e-03 -1.2549170049e-03 +8.2454372447e-03 8.7579764935e-03 5.1099893000e-04 0.0000e+00 1.0000e+00
<vert_displacement>
338.87177806260473
</vert_displacement>
</event>
<event>
 4   1200 +8.5212000e+10 3.67690600e-02 7.81665300e-03            nan
       50 -1    0    0    0    0 -2.7135523096e-02 -2.9701616598e-02 +1.8424723095e+01 1.8424767694e+01 4.9935713700e-03 0.0000e+00 0.0000e+00
       11 -1    0    0    0    0 -3.0862662043e-18 -3.3781215566e-18 +2.0955409634e-15 5.1100000000e-04 5.1099893000e-04 0.0000e+00 1.0000e+00
       50  1    1    2    0    0 -3.0850605837e-02 +8.5307694150e-03 +1.7018857454e+01 1.7018888286e+01 4.9935713700e-03 0.0000e+00 0.0000e+00
       11  1    1    2    0    0 +3.7150827408e-03 -3.8232386013e-02 +1.4058656414e+00 1.4063904081e+00 5.1099893000e-04 0.0000e+00 1.0000e+00
<vert_displacement>
5.4074542981910030
</vert_displacement>
</event>
<event>
 4   1200 +8.5212000e+10 7.70622400e-03 7.81665300e-03            nan
       50 -1    0    0    0    0 -2.1084996790e-03 +2.2786550974e-02 +1.7593124602e+01 1.7593140193e+01 4.9935713700e-03 0.0000e+00 0.0000e+00
       11 -1    0    0    0    0 +1.6632228241e-21 -1.7974445070e-20 -1.3877776068e-17 5.1100000000e-04 5.1099893000e-04 0.0000e+00 1.0000e+00
       50  1    1    2    0    0 -3.2731882447e-03 +1.6990925452e-02 +1.7559357488e+01 1.7559366724e+01 4.9935713700e-03 0.0000e+00 0.0000e+00
       11  1    1    2    0    0 +1.1646885656e-03 +5.7956255220e-03 +3.3767113864e-02 3.4284469855e-02 5.1099893000e-04 0.0000e+00 1.0000e+00
<vert_displacement>
9.1348637803118660
</vert_displacement>
</event>
<event>
 4   1200 +8.5212000e+10 1.10577800e-02 7.81665300e-03            nan
       50 -1    0    0    0    0 +6.6157353631e-03 +2.5695875789e-02 +1.0504565178e+01 1.0504599876e+01 4.9935713700e-03 0.0000e+00 0.0000e+00
       11 -1    0    0    0    0 +1.3110225475e-20 +5.0920828432e-20 +2.0816615303e-17 5.1100000000e-04 5.1099893000e-04 0.0000e+00 1.0000e+00
       50  1    1    2    0    0 +1.6127172577e-02 +2.7851525053e-02 +1.0408423753e+01 1.0408474708e+01 4.9935713700e-03 0.0000e+00 0.0000e+00
       11  1    1    2    0    0 -9.5114372138e-03 -2.1556492641e-03 +9.6141424716e-02 9.6636167804e-02 5.1099893000e-04 0.0000e+00 1.0000e+00
<vert_displacement>
312.98317024105501
</vert_displacement>
</event>
<event>
 4   1200 +8.5212000e+10 1.24456500e-02 7.81665300e-03            nan
       50 -1    0    0    0    0 +7.5815527228e-03 +3.8443978985e-03 +6.6034317601e+00 6.6034391196e+00 4.9935713700e-03 0.0000e+00 0.0000e+00
       11 -1    0    0    0    0 +6.3733583740e-20 +3.2317556093e-20 +5.5511105237e-17 5.1100000000e-04 5.1099893000e-04 0.0000e+00 1.0000e+00
       50  1    1    2    0    0 -3.2683365919e-03 -1.6152922440e-04 +6.4737176965e+00 6.4737204494e+00 4.9935713700e-03 0.0000e+00 0.0000e+00
       11  1    1    2    0    0 +1.0849889315e-02 +4.0059271229e-03 +1.2971406369e-01 1.3022967016e-01 5.1099893000e-04 0.0000e+00 1.0000e+00
<vert_displacement>
98.152286673089350
</vert_displacement>
</event>
<event>
 4   1200 +8.5212000e+10 8.59326300e-03 7.81665300e-03            nan
       50 -1    0    0    0    0 -2.5268539954e-02 -2.2258031943e-02 +8.9413710241e+00 8.9414358268e+00 4.9935713700e-03 0.0000e+00 0.0000e+00
       11 -1    0    0    0    0 -1.2746077541e-18 -1.1227502720e-18 +4.5102490528e-16 5.1100000000e-04 5.1099893000e-04 0.0000e+00 1.0000e+00
       50  1    1    2    0    0 -3.1031451470e-02 -2.5894684763e-02 +8.8932273709e+00 8.8933206111e+00 4.9935713700e-03 0.0000e+00 0.0000e+00
       11  1    1    2    0    0 +5.7629115161e-03 +3.6366528200e-03 +4.8143653178e-02 4.8626215708e-02 5.1099893000e-04 0.0000e+00 1.0000e+00
<vert_displacement>
459.72443796060759
</vert_displacement>
</event>
<event>
 4   1200 +8.5212000e+10 1.14000900e-02 7.81665300e-03            nan
       50 -1    0    0    0    0 +5.6219133482e-03 -5.9998608009e-03 +1.0309067476e+01 1.0309071965e+01 4.9935713700e-03 0.0000e+00 0.0000e+00
       11 -1    0    0    0    0 +6.2814941880e-19 -6.7037836436e-19 +1.1518560217e-15 5.1100000000e-04 5.1099893000e-04 0.0000e+00 1.0000e+00
       50  1    1    2    0    0 +1.6703651131e-03 +3.5397828614e-03 +1.0205256726e+01 1.0205258698e+01 4.9935713700e-03 0.0000e+00 0.0000e+00
       11  1    1    2    0    0 +3.9515482352e-03 -9.5396436623e-03 +1.0381075057e-01 1.0432426654e-01 5.1099893000e-04 0.0000e+00 1.0000e+00
<vert_displacement>
423.78871210715948
</vert_displacement>
</event>
<event>
 4   1200 +8.5212000e+10 1.77320900e-02 7.81665300e-03            nan
       50 -1    0    0    0    0 -2.4647835193e-03 -3.4249107978e-03 +1.7741828942e+00 1.7741949394e+00 4.9935713700e-03 0.0000e+00 0.0000e+00
       11 -1    0    0    0    0 -1.3013771623e-19 -1.8083132495e-19 +9.3674802766e-17 5.1100000000e-04 5.1099893000e-04 0.0000e+00 1.0000e+00
       50  1    1    2    0    0 -9.2245491358e-03 -1.8129185750e-02 +1.4185696349e+00 1.4187242525e+00 4.9935713700e-03 0.0000e+00 0.0000e+00
       11  1    1    2    0    0 +6.7597656165e-03 +1.4704274952e-02 +3.5561325932e-01 3.5598168697e-01 5.1099893000e-04 0.0000e+00 1.0000e+00
<vert_displacement>
492.79554982276261
</vert_displacement>
</event>
<event>
 4   1200 +8.5212000e+10 3.86532900e-02 7.81665300e-03            nan
       50 -1    0    0    0    0 +7.2518568617e-04 -1.2075081124e-02 +1.5884339967e+01 1.5884345358e+01 4.9935713700e-03 0.0000e+00 0.0000e+00
       11 -1    0    0    0    0 +2.1541655870e-20 -3.5869053561e-19 +4.7184464864e-16 5.1100000000e-04 5.1099893000e-04 0.0000e+00 1.0000e+00
       50  1    1    2    0    0 +2.9580311761e-02 -3.6005434549e-02 +1.4285607647e+01 1.4285684519e+01 4.9935713700e-03 0.0000e+00 0.0000e+00
       11  1    1    2    0    0 -2.8855126075e-02 +2.3930353425e-02 +1.5987323192e+00 1.5991718387e+00 5.1099893000e-04 0.0000e+00 1.0000e+00
<vert_displacement>
140.61870778377391
</vert_displacement>
</event>
<event>
 4   1200 +8.5212000e+10 1.76532900e-02 7.81665300e-03            nan
       50 -1    0    0    0    0 -2.8647654582e-02 -1.1678163143e-02 +1.7064197079e+01 1.7064225853e+01 4.9935713700e-03 0.0000e+00 0.0000e+00
       11 -1    0    0    0    0 +4.1936796048e-19 +1.7095456962e-19 -2.4979977002e-16 5.1100000000e-04 5.1099893000e-04 0.0000e+00 1.0000e+00
       50  1    1    2    0    0 -3.3032457552e-02 -2.7701594806e-02 +1.6778861376e+01 1.6778917501e+01 4.9935713700e-03 0.0000e+00 0.0000e+00
       11  1    1    2    0    0 +4.3848029702e-03 +1.6023431663e-02 +2.8533570333e-01 2.8581935130e-01 5.1099893000e-04 0.0000e+00 1.0000e+00
<vert_displacement>
113.14683375496635
</vert_displacement>
</event>
<event>
 4   1200 +8.5212000e+10 1.48508700e-02 7.81665300e-03            nan
       50 -1    0    0    0    0 +1.5324074747e-02 +1.9904196816e-03 +4.8866488919e+00 4.8866758760e+00 4.9935713700e-03 0.0000e+00 0.0000e+00
       11 -1    0    0    0    0 +2.1759614729e-20 +2.8263217280e-21 +6.9388592103e-18 5.1100000000e-04 5.1099893000e-04 0.0000e+00 1.0000e+00
       50  1    1    2    0    0 +1.1726457743e-03 +5.4690380619e-03 +4.6870744951e+00 4.6870804926e+00 4.9935713700e-03 0.0000e+00 0.0000e+00
       11  1    1    2    0    0 +1.4151428973e-02 -3.4786183803e-03 +1.9957439673e-01 2.0010638340e-01 5.1099893000e-04 0.0000e+00 1.0000e+00
<vert_displacement>
333.04705842109314
</vert_displacement>
</event>
<event>
 4   1200 +8.5212000e+10 2.93302400e-02 7.81665300e-03            nan
       50 -1    0    0    0    0 +3.0107431298e-02 -3.2211237760e-02 +1.2416802239e+01 1.2416881525e+01 4.9935713700e-03 0.0000e+00 0.0000e+00
       11 -1    0    0    0    0 -5.0474578817e-19 +5.4001573334e-19 -2.0816550474e-16 5.1100000000e-04 5.1099893000e-04 0.0000e+00 1.0000e+00
       50  1    1    2    0    0 +1.8442515706e-02 -5.7213851887e-02 +1.1536914785e+01 1.1537072473e+01 4.9935713700e-03 0.0000e+00 0.0000e+00
       11  1    1    2    0    0 +1.1664915592e-02 +2.5002614127e-02 +8.7988745396e-01 8.8032005187e-01 5.1099893000e-04 0.0000e+00 1.0000e+00
<vert_displacement>
150.87141158239285
</vert_displacement>
</event>
<event>
 4   1200 +8.5212000e+10 1.61590200e-02 7.81665300e-03            nan
       50 -1    0    0    0    0 -5.1784688774e-03 -2.3986979674e-04 +4.0574896169e+00 4.0574960014e+00 4.9935713700e-03 0.0000e+00 0.0000e+00
       11 -1    0    0    0    0 +7.9703309610e-20 +3.6919052963e-21 -6.2449994164e-17 5.1100000000e-04 5.1099893000e-04 0.0000e+00 1.0000e+00
       50  1    1    2    0    0 -1.1256942568e-02 +1.3750111355e-02 +3.8113379909e+00 3.8113826889e+00 4.9935713700e-03 0.0000e+00 0.0000e+00
       11  1    1    2    0    0 +6.0784736908e-03 -1.3989981152e-02 +2.4615162599e-01 2.4662431249e-01 5.1099893000e-04 0.0000e+00 1.0000e+00
<vert_displacement>
252.86870971959277
</vert_displacement>
</event>
<event>
 4   1200 +8.5212000e+10 2.04773000e-02 7.81665300e-03            nan
       50 -1    0    0    0    0 -3.3876186897e-02 +3.7026059940e-02 +1.6571371203e+01 1.6571447945e+01 4.9935713700e-03 0.0000e+00 0.0000e+00
       11 -1    0    0    0    0 -5.1349107639e-18 +5.6123646473e-18 +2.5118680747e-15 5.1100000000e-04 5.1099893000e-04 0.0000e+00 1.0000e+00
       50  1    1    2    0    0 -5.0637448009e-02 +2.6885403518e-02 +1.6176005788e+01 1.6176108159e+01 4.9935713700e-03 0.0000e+00 0.0000e+00
       11  1    1    2    0    0 +1.6761261111e-02 +1.0140656422e-02 +3.9536541465e-01 3.9585078629e-01 5.1099893000e-04 0.0000e+00 1.0000e+00
<vert_displacement>
470.66949071406930
</vert_displacement>
</event>
<event>
 4   1200 +8.5212000e+10 1.23869800e-02 7.81665300e-03            nan
       50 -1    0    0    0    0 +1.7353304655e-02 -2.5097897093e-02 +1.3669819045e+01 1.3669854011e+01 4.9935713700e-03 0.0000e+00 0.0000e+00
       11 -1    0    0    0    0 -7.3992529964e-19 +1.0701459691e-18 -5.8286563588e-16 5.1100000000e-04 5.1099893000e-04 0.0000e+00 1.0000e+00
       50  1    1    2    0    0 +2.0702478194e-02 -1.4086232513e-02 +1.3542914225e+01 1.3542938295e+01 4.9935713700e-03 0.0000e+00 0.0000e+00
       11  1    1    2    0    0 -3.3491735387e-03 -1.1011664580e-02 +1.2690481959e-01 1.2742671649e-01 5.1099893000e-04 0.0000e+00 1.0000e+00
<vert_displacement>
343.01554182663966
</vert_displacement>
</event>
<event>
 4   1200 +8.5212000e+10 1.02021600e-02 7.81665300e-03            nan
       50 -1    0    0    0    0 +1.2639199352e-03 +2.3356995178e-02 +1.4263290753e+01 1.4263310807e+01 4.9935713700e-03 0.0000e+00 0.0000e+00
       11 -1    0    0    0    0 +1.1805672203e-19 +2.1816653179e-18 +1.3322658380e-15 5.1100000000e-04 5.1099893000e-04 0.0000e+00 1.0000e+00
       50  1    1    2    0    0 -7.2315794794e-03 +2.0566394334e-02 +1.4185422764e+01 1.4185440395e+01 4.9935713700e-03 0.0000e+00 0.0000e+00
       11  1    1    2    0    0 +8.4954994146e-03 +2.7906008435e-03 +7.7867988745e-02 7.8381412047e-02 5.1099893000e-04 0.0000e+00 1.0000e+00
<vert_displacement>
125.49153454196190
</vert_displacement>
</event>
<event>
 4   1200 +8.5212000e+10 3.13292400e-02 7.81665300e-03            nan
       50 -1    0    0    0    0 -7.5906410246e-03 +2.1380724096e-03 +1.5831641365e+01 1.5831644117e+01 4.9935713700e-03 0.0000e+00 0.0000e+00
       11 -1    0    0    0    0 -1.3973075118e-19 +3.9358265382e-20 +2.9143350781e-16 5.1100000000e-04 5.1099893000e-04 0.0000e+00 1.0000e+00
       50  1    1    2    0    0 +1.1682092150e-02 +2.6567005822e-02 +1.4832465558e+01 1.4832494791e+01 4.9935713700e-03 0.0000e+00 0.0000e+00
       11  1    1    2    0    0 -1.9272733174e-02 -2.4428933413e-02 +9.9917580737e-01 9.9966032540e-01 5.1099893000e-04 0.0000e+00 1.0000e+00
<vert_displacement>
223.89197146927089
</vert_displacement>
</event>
<event>
 4   1200 +8.5212000e+10 2.06728200e-02 7.81665300e-03            nan
       50 -1    0    0    0    0 -1.7533298951e-02 +1.7402656975e-02 +7.2076672258e+00 7.2077112902e+00 4.9935713700e-03 0.0000e+00 0.0000e+00
       11 -1    0    0    0    0 +1.7385766060e-18 -1.7256223362e-18 -7.1470187427e-16 5.1100000000e-04 5.1099893000e-04 0.0000e+00 1.0000e+00
       50  1    1    2    0    0 -6.7940552030e-03 -1.1541508417e-03 +6.7896030955e+00 6.7896084292e+00 4.9935713700e-03 0.0000e+00 0.0000e+00
       11  1    1    2    0    0 -1.0739243748e-02 +1.8556807816e-02 +4.1806413025e-01 4.1861386097e-01 5.1099893000e-04 0.0000e+00 1.0000e+00
<vert_displacement>
484.49398533290832
</vert_displacement>
</event>
<event>
 4   1200 +8.5212000e+10 9.54678600e-03 7.81665300e-03            nan
       50 -1    0    0    0    0 +1.3179038793e-02 +2.2394321760e-03 +1.0964820370e+01 1.0964829656e+01 4.9935713700e-03 0.0000e+00 0.0000e+00
       11 -1    0    0    0    0 +1.5762820994e-18 +2.6784782313e-19 +1.3114499732e-15 5.1100000000e-04 5.1099893000e-04 0.0000e+00 1.0000e+00
       50  1    1    2    0    0 +7.8042437909e-03 +8.4029187745e-03 +1.0899654083e+01 1.0899661260e+01 4.9935713700e-03 0.0000e+00 0.0000e+00
       11  1    1    2    0    0 +5.3747950025e-03 -6.1634865985e-03 +6.5166286780e-02 6.5679395863e-02 5.1099893000e-04 0.0000e+00 1.0000e+00
<vert_displacement>
356.87741337687817
</vert_displacement>
</event>
<event>
 4   1200 +8.5212000e+10 7.69798900e-03 7.81665300e-03            nan
       50 -1    0    0    0    0 -6.7357561525e-03 +1.6334897877e-02 +7.5318064323e+00 7.5318288130e+00 4.9935713700e-03 0.0000e+00 0.0000e+00
       11 -1    0    0    0    0 +1.9857576156e-19 -4.8156654017e-19 -2.2204399392e-16 5.1100000000e-04 5.1099893000e-04 0.0000e+00 1.0000e+00
       50  1    1    2    0    0 -6.9940805213e-03 +2.2113212133e-02 +7.4980552572e+00 7.4980927899e+00 4.9935713700e-03 0.0000e+00 0.0000e+00
       11  1    1    2    0    0 +2.5832436881e-04 -5.7783142563e-03 +3.3751175162e-02 3.4247023109e-02 5.1099893000e-04 0.0000e+00 1.0000e+00
<vert_displacement>
143.47409448726094
</vert_displacement>
</event>
<event>
 4   1200 +8.5212000e+10 1.82442200e-02 7.81665300e-03            nan
       50 -1    0    0    0    0 -1.4011557532e-02 +1.8203361383e-02 +1.7431900900e+01 1.7431916751e+01 4.9935713700e-03 0.0000e+00 0.0000e+00
       11 -1    0    0    0    0 +1.1154793419e-19 -1.4491946045e-19 -1.3877775758e-16 5.1100000000e-04 5.1099893000e-04 0.0000e+00 1.0000e+00
       50  1    1    2    0    0 -6.8707205149e-03 +1.7466824449e-03 +1.7125223748e+01 1.7125225943e+01 4.9935713700e-03 0.0000e+00 0.0000e+00
       11  1    1    2    0    0 -7.1408370166e-03 +1.6456678938e-02 +3.0667715273e-01 3.0720180820e-01 5.1099893000e-04 0.0000e+00 1.0000e+00
<vert_displacement>
229.52811977729465
</vert_displacement>
</event>
<event>
 4   1200 +8.5212000e+10 2.90913100e-02 7.81665300e-03            nan
       50 -1    0    0    0    0 -3.9755975123e-02 +2.3718716209e-02 +2.3896983164e+01 2.3897028526e+01 4.9935713700e-03 0.0000e+00 0.0000e+00
       11 -1    0    0    0    0 -1.5468690965e-18 +9.2287383217e-19 +9.2981003841e-16 5.1100000000e-04 5.1099893000e-04 0.0000e+00 1.0000e+00
       50  1    1    2    0    0 -2.8108946899e-02 -3.8672273358e-03 +2.3064274900e+01 2.3064292893e+01 4.9935713700e-03 0.0000e+00 0.0000e+00
       11  1    1    2    0    0 -1.1647028224e-02 +2.7585943545e-02 +8.3270826393e-01 8.3324663304e-01 5.1099893000e-04 0.0000e+00 1.0000e+00
<vert_displacement>
64.513238128356235
</vert_displacement>
</event>
<event>
 4   1200 +8.5212000e+10 7.95887400e-03 7.81665300e-03            nan
       50 -1    0    0    0    0 +9.3731888145e-03 -1.1004827020e-02 +5.2978320891e+00 5.2978541640e+00 4.9935713700e-03 0.0000e+00 0.0000e+00
       11 -1    0    0    0    0 -1.2276591541e-20 +1.4413639689e-20 -6.9388680735e-18 5.1100000000e-04 5.1099893000e-04 0.0000e+00 1.0000e+00
       50  1    1    2    0    0 +1.3408615213e-02 -6.2809571509e-03 +5.2599781082e+00 5.2600013190e+00 4.9935713700e-03 0.0000e+00 0.0000e+00
       11  1    1    2    0    0 -4.0354263981e-03 -4.7238698691e-03 +3.7853980893e-02 3.8363844986e-02 5.1099893000e-04 0.0000e+00 1.0000e+00
<vert_displacement>
119.30565244645726
</vert_displacement>
</event>
<event>
 4   1200 +8.5212000e+10 2.21853200e-02 7.81665300e-03            nan
       50 -1    0    0    0    0 +1.3339252046e-02 +1.5396534268e-02 +1.7368846325e+01 1.7368858989e+01 4.9935713700e-03 0.0000e+00 0.0000e+00
       11 -1    0    0    0    0 -1.3855551037e-19 -1.5992460868e-19 -1.8041111741e-16 5.1100000000e-04 5.1099893000e-04 0.0000e+00 1.0000e+00
       50  1    1    2    0    0 +2.1686027164e-03 -3.7390562620e-03 +1.6898931228e+01 1.6898932518e+01 4.9935713700e-03 0.0000e+00 0.0000e+00
       11  1    1    2    0    0 +1.1170649330e-02 +1.9135590530e-02 +4.6991509718e-01 4.7043747077e-01 5.1099893000e-04 0.0000e+00 1.0000e+00
<vert_displacement>
179.18625877532918
</vert_displacement>
</event>
<event>
 4   1200 +8.5212000e+10 2.63219700e-02 7.81665300e-03            nan
       50 -1    0    0    0    0 -1.4579415785e-02 +9.0565182777e-03 +4.4762883801e+00 4.4763240698e+00 4.9935713700e-03 0.0000e+00 0.0000e+00
       11 -1    0    0    0    0 +2.2600035359e-20 -1.4038808985e-20 -6.9388428978e-18 5.1100000000e-04 5.1099893000e-04 0.0000e+00 1.0000e+00
       50  1    1    2    0    0 -3.7621853034e-02 +1.0727934775e-02 +3.6803296115e+00 3.6805409219e+00 4.9935713700e-03 0.0000e+00 0.0000e+00
       11  1    1    2    0    0 +2.3042437250e-02 -1.6714164976e-03 +7.9595876861e-01 7.9629414791e-01 5.1099893000e-04 0.0000e+00 1.0000e+00
<vert_displacement>
172.96346013343950
</vert_displacement>
</event>
<event>
 4   1200 +8.5212000e+10 1.62338300e-02 7.81665300e-03            nan
       50 -1    0    0    0    0 -2.8660800914e-03 +7.3064898241e-03 +5.0475218249e+00 5.0475303969e+00 4.9935713700e-03 0.0000e+00 0.0000e+00
       11 -1    0    0    0    0 -1.1426095168e-19 +2.9128511909e-19 +2.0122767995e-16 5.1100000000e-04 5.1099893000e-04 0.0000e+00 1.0000e+00
       50  1    1    2    0    0 +9.1469321939e-03 -2.9290579023e-03 +4.8020577893e+00 4.8020699905e+00 4.9935713700e-03 0.0000e+00 0.0000e+00
       11  1    1    2    0    0 -1.2013012285e-02 +1.0235547726e-02 +2.4546403553e-01 2.4597140639e-01 5.1099893000e-04 0.0000e+00 1.0000e+00
<vert_displacement>
435.47995879320246
</vert_displacement>
</event>
<event>
 4   1200 +8.5212000e+10 9.83465000e-03 7.81665300e-03            nan
       50 -1    0    0    0    0 +6.1096215850e-03 +4.8885527802e-02 +3.6280233167e+01 3.6280266960e+01 4.9935713700e-03 0.0000e+00 0.0000e+00
       11 -1    0    0    0    0 -2.5239912227e-19 -2.0195464052e-18 -1.4987997014e-15 5.1100000000e-04 5.1099893000e-04 0.0000e+00 1.0000e+00
       50  1    1    2    0    0 +4.9323079278e-03 +4.0398669437e-02 +3.6209867808e+01 3.6209891025e+01 4.9935713700e-03 0.0000e+00 0.0000e+00
       11  1    1    2    0    0 +1.1773136572e-03 +8.4868583652e-03 +7.0365358608e-02 7.0886935639e-02 5.1099893000e-04 0.0000e+00 1.0000e+00
<vert_displacement>
384.37401924064665
</vert_displacement>
</event>
<event>
 4   1200 +8.5212000e+10 1.52419800e-02 7.81665300e-03            nan
       50 -1    0    0    0    0 +2.3208340887e-02 -3.1834634642e-04 +6.7384863276e+00 6.7385281517e+00 4.9935713700e-03 0.0000e+00 0.0000e+00
       11 -1    0    0    0    0 +9.5593729488e-20 -1.3112490320e-21 +2.7755410966e-17 5.1100000000e-04 5.1099893000e-04 0.0000e+00 1.0000e+00
       50  1    1    2    0    0 +1.5964186820e-02 +1.2530384571e-02 +6.5290426341e+00 6.5290760846e+00 4.9935713700e-03 0.0000e+00 0.0000e+00
       11  1    1    2    0    0 +7.2441540669e-03 -1.2848730917e-02 +2.0944369351e-01 2.0996306705e-01 5.1099893000e-04 0.0000e+00 1.0000e+00
<vert_displacement>
287.87756865929629
</vert_displacement>
</event>
<event>
 4   1200 +8.5212000e+10 1.21587300e-02 7.81665300e-03            nan
       50 -1    0    0    0    0 -9.9410839659e-02 +3.3092316595e-02 +3.2916098101e+01 3.2916265231e+01 4.9935713700e-03 0.0000e+00 0.0000e+00
       11 -1    0    0    0    0 -5.3228859103e-18 +1.7719056226e-18 +1.7624701230e-15 5.1100000000e-04 5.1099893000e-04 0.0000e+00 1.0000e+00
       50  1    1    2    0    0 -1.0851740517e-01 +3.8732599586e-02 +3.2795366091e+01 3.2795568881e+01 4.9935713700e-03 0.0000e+00 0.0000e+00
       11  1    1    2    0    0 +9.1065655148e-03 -5.6402829907e-03 +1.2073201028e-01 1.2120735025e-01 5.1099893000e-04 0.0000e+00 1.0000e+00
<vert_displacement>
343.87890857160227
</vert_displacement>
</event>
<event>
 4   1200 +8.5212000e+10 1.22283800e-02 7.81665300e-03            nan
       50 -1    0    0    0    0 -5.2036308408e-03 -8.9664570601e-03 +6.1620892931e+00 6.1621000370e+00 4.9935713700e-03 0.0000e+00 0.0000e+00
       11 -1    0    0    0    0 +7.0315224923e-20 +1.2116125533e-19 -8.3266609007e-17 5.1100000000e-04 5.1099893000e-04 0.0000e+00 1.0000e+00
       50  1    1    2    0    0 +3.3817675544e-03 -1.5271599642e-03 +6.0376584317e+00 6.0376616369e+00 4.9935713700e-03 0.0000e+00 0.0000e+00
       11  1    1    2    0    0 -8.5853983952e-03 -7.4392970960e-03 +1.2443086136e-01 1.2494940010e-01 5.1099893000e-04 0.0000e+00 1.0000e+00
<vert_displacement>
48.863882433743420
</vert_displacement>
</event>
<event>
 4   1200 +8.5212000e+10 6.55811200e-03 7.81665300e-03            nan
       50 -1    0    0    0    0 +3.9777405818e-03 -5.6371533372e-03 +4.9760913704e+00 4.9760986588e+00 4.9935713700e-03 0.0000e+00 0.0000e+00
       11 -1    0    0    0    0 +1.4421528336e-19 -2.0437825170e-19 +1.8041106810e-16 5.1100000000e-04 5.1099893000e-04 0.0000e+00 1.0000e+00
       50  1    1    2    0    0 +7.4480897670e-03 -3.1816667465e-03 +4.9583418933e+00 4.9583510226e+00 4.9935713700e-03 0.0000e+00 0.0000e+00
       11  1    1    2    0    0 -3.4703491851e-03 -2.4554865907e-03 +1.7749477063e-02 1.8258636142e-02 5.1099893000e-04 0.0000e+00 1.0000e+00
<vert_displacement>
249.51003632103985
</vert_displacement>
</event>
<event>
 4   1200 +8.5212000e+10 3.30020900e-02 7.81665300e-03            nan
       50 -1    0    0    0    0 +9.1797591400e-03 +6.7367382182e-03 +8.5364211026e+00 8.5364301572e+00 4.9935713700e-03 0.0000e+00 0.0000e+00
       11 -1    0    0    0    0 -1.2535873415e-18 -9.1996855521e-19 -1.1657331388e-15 5.1100000000e-04 5.1099893000e-04 0.0000e+00 1.0000e+00
       50  1    1    2    0    0 +3.6829342720e-02 +2.0803490364e-02 +7.3216900336e+00 7.3218139194e+00 4.9935713700e-03 0.0000e+00 0.0000e+00
       11  1    1    2    0    0 -2.7649583580e-02 -1.4066752146e-02 +1.2147310690e+00 1.2151272378e+00 5.1099893000e-04 0.0000e+00 1.0000e+00
<vert_displacement>
141.59431238778075
</vert_displacement>
</event>
<event>
 4   1200 +8.5212000e+10 6.87084800e-03 7.81665300e-03            nan
       50 -1    0    0    0    0 -8.1073644248e-03 -7.3296088356e-03 +4.0351923181e+00 4.0352102091e+00 4.9935713700e-03 0.0000e+00 0.0000e+00
       11 -1    0    0    0    0 +1.6171939211e-18 +1.4620532927e-18 -8.0490874040e-16 5.1100000000e-04 5.1099893000e-04 0.0000e+00 1.0000e+00
       50  1    1    2    0    0 -5.7171022054e-03 -3.1949439991e-03 +4.0132886955e+00 4.0132971460e+00 4.9935713700e-03 0.0000e+00 0.0000e+00
       11  1    1    2    0    0 -2.3902622194e-03 -4.1346648365e-03 +2.1903622548e-02 2.2424063133e-02 5.1099893000e-04 0.0000e+00 1.0000e+00
<vert_displacement>
136.67061392360930
</vert_displacement>
</event>
<event>
 4   1200 +8.5212000e+10 1.35288400e-02 7.81665300e-03            nan
       50 -1    0    0    0    0 -2.9481582667e-03 -2.8954442330e-02 +1.6768749934e+01 1.6768775934e+01 4.9935713700e-03 0.0000e+00 0.0000e+00
       11 -1    0    0    0    0 -2.8302687992e-19 -2.7796626678e-18 +1.6098209610e-15 5.1100000000e-04 5.1099893000e-04 0.0000e+00 1.0000e+00
       50  1    1    2    0    0 -1.4349696454e-02 -3.3926174040e-02 +1.6612587611e+01 1.6612629201e+01 4.9935713700e-03 0.0000e+00 0.0000e+00
       11  1    1    2    0    0 +1.1401538188e-02 +4.9717317099e-03 +1.5616232295e-01 1.5665773335e-01 5.1099893000e-04 0.0000e+00 1.0000e+00
<vert_displacement>
488.28276030298741
</vert_displacement>
</event>
<event>
 4   1200 +8.5212000e+10 2.03179900e-02 7.81665300e-03            nan
       50 -1    0    0    0    0 -1.1335878883e-02 +2.4810866145e-02 +1.5581777166e+01 1.5581801843e+01 4.9935713700e-03 0.0000e+00 0.0000e+00
       11 -1    0    0    0    0 -1.1610625725e-18 +2.5412205236e-18 +1.5959431524e-15 5.1100000000e-04 5.1099893000e-04 0.0000e+00 1.0000e+00
       50  1    1    2    0    0 -2.7333933684e-03 +4.2042450011e-02 +1.5192466818e+01 1.5192526057e+01 4.9935713700e-03 0.0000e+00 0.0000e+00
       11  1    1    2    0    0 -8.6024855148e-03 -1.7231583866e-02 +3.8931034755e-01 3.8978678539e-01 5.1099893000e-04 0.0000e+00 1.0000e+00
<vert_displacement>
417.78404954463190
</vert_displacement>
</event>
<event>
 4   1200 +8.5212000e+10 1.34375000e-02 7.81665300e-03            nan
       50 -1    0    0    0    0 +6.8595746095e-02 +3.2176825220e-02 +2.1675535710e+01 2.1675668709e+01 4.9935713700e-03 0.0000e+00 0.0000e+00
       11 -1    0    0    0    0 +5.6654530408e-18 +2.6575451491e-18 +1.7902236901e-15 5.1100000000e-04 5.1099893000e-04 0.0000e+00 1.0000e+00
       50  1    1    2    0    0 +5.5667412597e-02 +3.1053824733e-02 +2.1522206743e+01 2.1522301718e+01 4.9935713700e-03 0.0000e+00 0.0000e+00
       11  1    1    2    0    0 +1.2928333498e-02 +1.1230004865e-03 +1.5332896674e-01 1.5387799095e-01 5.1099893000e-04 0.0000e+00 1.0000e+00
<vert_displacement>
94.670359997025969
</vert_displacement>
</event>
<event>
 4   1200 +8.5212000e+10 3.51360900e-02 7.81665300e-03            nan
       50 -1    0    0    0    0 +1.4264920277e-02 +5.9709335840e-03 +2.1222719586e+01 2.1222725808e+01 4.9935713700e-03 0.0000e+00 0.0000e+00
       11 -1    0    0    0    0 -1.2965917108e-18 -5.4272038262e-19 -1.9290119932e-15 5.1100000000e-04 5.1099893000e-04 0.0000e+00 -1.0000e+00
       50  1    1    2    0    0 +2.7411998147e-02 -2.6223453392e-02 +1.9964432386e+01 1.9964469052e+01 4.9935713700e-03 0.0000e+00 0.0000e+00
       11  1    1    2    0    0 -1.3147077870e-02 +3.2194386976e-02 +1.2582871998e+00 1.2587677556e+00 5.1099893000e-04 0.0000e+00 -1.0000e+00
<vert_displacement>
87.946356338486041
</vert_displacement>
</event>
<event>
 4   1200 +8.5212000e+10 7.49333400e-02 7.81665300e-03            nan
       50 -1    0    0    0    0 +9.8913764660e-02 +2.8196489748e-02 +3.4882403856e+01 3.4882555851e+01 4.9935713700e-03 0.0000e+00 0.0000e+00
       11 -1    0    0    0    0 -7.8704339049e-20 -2.2435563915e-20 -2.7755454960e-17 5.1100000000e-04 5.1099893000e-04 0.0000e+00 1.0000e+00
       50  1    1    2    0    0 +1.1898455575e-02 +5.4326835895e-02 +2.8088626409e+01 2.8088681911e+01 4.9935713700e-03 0.0000e+00 0.0000e+00
       11  1    1    2    0    0 +8.7015309085e-02 -2.6130346148e-02 +6.7937774464e+00 6.7943849399e+00 5.1099893000e-04 0.0000e+00 1.0000e+00
<vert_displacement>
183.44724948204401
</vert_displacement>
</event>
<event>
 4   1200 +8.5212000e+10 2.84969100e-02 7.81665300e-03            nan
       50 -1    0    0    0    0 -9.2398995993e-03 -9.9703269481e-03 +5.6591837385e+00 5.6592022675e+00 4.9935713700e-03 0.0000e+00 0.0000e+00
       11 -1    0    0    0    0 -5.6646418462e-20 -6.1124399290e-20 +3.4694369431e-17 5.1100000000e-04 5.1099893000e-04 0.0000e+00 1.0000e+00
       50  1    1    2    0    0 +3.5716176489e-03 +1.7327725102e-02 +4.7385619030e+00 4.7385975616e+00 4.9935713700e-03 0.0000e+00 0.0000e+00
       11  1    1    2    0    0 -1.2811517248e-02 -2.7298052050e-02 +9.2062183553e-01 9.2111570597e-01 5.1099893000e-04 0.0000e+00 1.0000e+00
<vert_displacement>
279.30060136737472
</vert_displacement>
</event>
<event>
 4   1200 +8.5212000e+10 5.83268100e-02 7.81665300e-03            nan
       50 -1    0    0    0    0 -9.4244987112e-03 -1.9862032372e-03 +1.5750858474e+01 1.5750862210e+01 4.9935713700e-03 0.0000e+00 0.0000e+00
       11 -1    0    0    0    0 -5.2313616121e-19 -1.1025039832e-19 +8.7430046843e-16 5.1100000000e-04 5.1099893000e-04 0.0000e+00 1.0000e+00
       50  1    1    2    0    0 -6.3906378311e-02 -1.1029482802e-02 +1.1028109710e+01 1.1028301519e+01 4.9935713700e-03 0.0000e+00 0.0000e+00
       11  1    1    2    0    0 +5.4481879600e-02 +9.0432795644e-03 +4.7227487641e+00 4.7230716918e+00 5.1099893000e-04 0.0000e+00 1.0000e+00
<vert_displacement>
109.24460546171549
</vert_displacement>
</event>
<event>
 4   1200 +8.5212000e+10 2.17889700e-02 7.81665300e-03            nan
       50 -1    0    0    0    0 -8.8735271942e-03 +1.3349622510e-02 +5.8909507071e+00 5.8909746326e+00 4.9935713700e-03 0.0000e+00 0.0000e+00
       11 -1    0    0    0    0 +5.5395617108e-19 -8.3338965545e-19 -3.6776001542e-16 5.1100000000e-04 5.1099893000e-04 0.0000e+00 1.0000e+00
       50  1    1    2    0    0 -1.4836685609e-02 -7.8644723517e-03 +5.4116460333e+00 5.4116743899e+00 4.9935713700e-03 0.0000e+00 0.0000e+00
       11  1    1    2    0    0 +5.9631584144e-03 +2.1214094862e-02 +4.7930467387e-01 4.7981124267e-01 5.1099893000e-04 0.0000e+00 1.0000e+00
<vert_displacement>
4.1537946199689673
</vert_displacement>
</event>
<event>
 4   1200 +8.5212000e+10 6.02849800e-03 7.81665300e-03            nan
       50 -1    0    0    0    0 -1.1213514935e-03 -1.5033698980e-02 +8.9006545106e+00 8.9006686784e+00 4.9935713700e-03 0.0000e+00 0.0000e+00
       11 -1    0    0    0    0 +5.6822822602e-20 +7.6181038249e-19 -4.5102745681e-16 5.1100000000e-04 5.1099893000e-04 0.0000e+00 1.0000e+00
       50  1    1    2    0    0 -6.6490956013e-04 -1.1668189751e-02 +8.8894840417e+00 8.8894931268e+00 4.9935713700e-03 0.0000e+00 0.0000e+00
       11  1    1    2    0    0 -4.5644193338e-04 -3.3655092284e-03 +1.1170468903e-02 1.1686551546e-02 5.1099893000e-04 0.0000e+00 1.0000e+00
<vert_displacement>
460.31284793852336
</vert_displacement>
</event>
<event>
 4   1200 +8.5212000e+10 7.95320400e-03 7.81665300e-03            nan
       50 -1    0    0    0    0 +4.5896675185e-03 +3.6771064513e-03 +1.4385231174e+00 1.4385438058e+00 4.9935713700e-03 0.0000e+00 0.0000e+00
       11 -1    0    0    0    0 +3.3207964589e-20 +2.6605243263e-20 +1.0408253877e-17 5.1100000000e-04 5.1099893000e-04 0.0000e+00 1.0000e+00
       50  1    1    2    0    0 +5.1074349105e-03 +9.7353970188e-03 +1.3999484628e+00 1.4000005350e+00 4.9935713700e-03 0.0000e+00 0.0000e+00
       11  1    1    2    0    0 -5.1776739203e-04 -6.0582905675e-03 +3.8574654588e-02 3.9054270754e-02 5.1099893000e-04 0.0000e+00 1.0000e+00
<vert_displacement>
128.66538996096327
</vert_displacement>
</event>
<event>
 4   1200 +8.5212000e+10 9.48892100e-03 7.81665300e-03            nan
       50 -1    0    0    0    0 +5.4506953173e-02 +3.9374467023e-04 +1.6517961574e+01 1.6518052266e+01 4.9935713700e-03 0.0000e+00 0.0000e+00
       11 -1    0    0    0    0 -5.6327236509e-18 -4.0689394423e-20 -1.7069586063e-15 5.1100000000e-04 5.1099893000e-04 0.0000e+00 1.0000e+00
       50  1    1    2    0    0 +4.6728021831e-02 +3.1904630077e-03 +1.6454034472e+01 1.6454101890e+01 4.9935713700e-03 0.0000e+00 0.0000e+00
       11  1    1    2    0    0 +7.7789313425e-03 -2.7967183375e-03 +6.3927102435e-02 6.4461375660e-02 5.1099893000e-04 0.0000e+00 1.0000e+00
<vert_displacement>
165.88885507857304
</vert_displacement>
</event>
<event>
 4   1200 +8.5212000e+10 1.81242800e-02 7.81665300e-03            nan
       50 -1    0    0    0    0 +4.0369804913e-03 +1.6249161549e-03 +2.8488229534e+00 2.8488306536e+00 4.9935713700e-03 0.0000e+00 0.0000e+00
       11 -1    0    0    0    0 +2.9498653055e-20 +1.1873438081e-20 +2.0816657425e-17 5.1100000000e-04 5.1099893000e-04 0.0000e+00 1.0000e+00
       50  1    1    2    0    0 +5.6061367112e-03 -1.5869605255e-02 +2.5114677790e+00 2.5115291386e+00 4.9935713700e-03 0.0000e+00 0.0000e+00
       11  1    1    2    0    0 -1.5691562200e-03 +1.7494521410e-02 +3.3735517435e-01 3.3781251503e-01 5.1099893000e-04 0.0000e+00 1.0000e+00
<vert_displacement>
361.96047574634645
</vert_displacement>
</event>
<event>
 4   1200 +8.5212000e+10 1.01011400e-02 7.81665300e-03            nan
       50 -1    0    0    0    0 -8.2301323897e-03 -1.0029041321e-02 +9.2395911629e+00 9.2396016207e+00 4.9935713700e-03 0.0000e+00 0.0000e+00
       11 -1    0    0    0    0 +7.0460989352e-19 +8.5862066401e-19 -7.9103312524e-16 5.1100000000e-04 5.1099893000e-04 0.0000e+00 1.0000e+00
       50  1    1    2    0    0 -9.8622931717e-03 -1.3320906386e-03 +9.1635292464e+00 9.1635360110e+00 4.9935713700e-03 0.0000e+00 0.0000e+00
       11  1    1    2    0    0 +1.6321607820e-03 -8.6969506825e-03 +7.6061916436e-02 7.6576609692e-02 5.1099893000e-04 0.0000e+00 1.0000e+00
<vert_displacement>
182.72389603157572
</vert_displacement>
</event>
<event>
 4   1200 +8.5212000e+10 2.08874700e-02 7.81665300e-03            nan
       50 -1    0    0    0    0 -5.9537103496e-02 +4.8759552347e-02 +2.5420552208e+01 2.5420669181e+01 4.9935713700e-03 0.0000e+00 0.0000e+00
       11 -1    0    0    0    0 -3.2502814897e-20 +2.6619076363e-20 +1.3877724217e-17 5.1100000000e-04 5.1099893000e-04 0.0000e+00 1.0000e+00
       50  1    1    2    0    0 -6.4424625890e-02 +6.7395901933e-02 +2.5011409338e+01 2.5011583612e+01 4.9935713700e-03 0.0000e+00 0.0000e+00
       11  1    1    2    0    0 +4.8875223937e-03 -1.8636349585e-02 +4.0914286906e-01 4.0959656959e-01 5.1099893000e-04 0.0000e+00 1.0000e+00
<vert_displacement>
366.46322444912113
</vert_displacement>
</event>
<event>
 4   1200 +8.5212000e+10 2.98520900e-02 7.81665300e-03            nan
       50 -1    0    0    0    0 -1.1230262403e-02 -5.3252953211e-03 +4.2421072190e+00 4.2421283656e+00 4.9935713700e-03 0.0000e+00 0.0000e+00
       11 -1    0    0    0    0 +1.0837987796e-18 +5.1392820248e-19 -4.0939298317e-16 5.1100000000e-04 5.1099893000e-04 0.0000e+00 1.0000e+00
       50  1    1    2    0    0 -1.4763076603e-02 -3.2522206082e-02 +3.0671130520e+00 3.0673250645e+00 4.9935713700e-03 0.0000e+00 0.0000e+00
       11  1    1    2    0    0 +3.5328142003e-03 +2.7196910761e-02 +1.1749941670e+00 1.1753143011e+00 5.1099893000e-04 0.0000e+00 1.0000e+00
<vert_displacement>
361.21833390700795
</vert_displacement>
</event>
<event>
 4   1200 +8.5212000e+10 2.81500500e-02 7.81665300e-03            nan
       50 -1    0    0    0    0 -7.7774535554e-03 +3.2797617957e-02 +1.4553475988e+01 1.4553515879e+01 4.9935713700e-03 0.0000e+00 0.0000e+00
       11 -1    0    0    0    0 +2.7069649659e-19 -1.1415304783e-18 -5.0653789638e-16 5.1100000000e-04 5.1099893000e-04 0.0000e+00 1.0000e+00
       50  1    1    2    0    0 -3.4679540777e-02 +2.6452644262e-02 +1.3759041216e+01 1.3759111256e+01 4.9935713700e-03 0.0000e+00 0.0000e+00
       11  1    1    2    0    0 +2.6902087221e-02 +6.3449736945e-03 +7.9443477193e-01 7.9491562380e-01 5.1099893000e-04 0.0000e+00 1.0000e+00
<vert_displacement>
386.03722281058242
</vert_displacement>
</event>
<event>
 4   1200 +8.5212000e+10 1.16686700e-02 7.81665300e-03            nan
       50 -1    0    0    0    0 -9.3502088107e-02 -5.4093665361e-02 +2.9174805033e+01 2.9175005440e+01 4.9935713700e-03 0.0000e+00 0.0000e+00
       11 -1    0    0    0    0 -5.9598511281e-18 -3.4479464475e-18 +1.8596108195e-15 5.1100000000e-04 5.1099893000e-04 0.0000e+00 1.0000e+00
       50  1    1    2    0    0 -8.4671761488e-02 -4.7621652825e-02 +2.9065605464e+01 2.9065768235e+01 4.9935713700e-03 0.0000e+00 0.0000e+00
       11  1    1    2    0    0 -8.8303266187e-03 -6.4720125359e-03 +1.0919956864e-01 1.0974820511e-01 5.1099893000e-04 0.0000e+00 1.0000e+00
<vert_displacement>
42.772318051916301
</vert_displacement>
</event>
<event>
 4   1200 +8.5212000e+10 1.39047500e-02 7.81665300e-03            nan
       50 -1    0    0    0    0 +1.1462844136e-02 +4.9646513358e-03 +5.3920704970e+00 5.3920872790e+00 4.9935713700e-03 0.0000e+00 0.0000e+00
       11 -1    0    0    0    0 -1.4751150953e-20 -6.3888438519e-21 -6.9388752832e-18 5.1100000000e-04 5.1099893000e-04 0.0000e+00 1.0000e+00
       50  1    1    2    0    0 -1.8060205346e-03 +3.4612968107e-03 +5.2219067741e+00 5.2219106212e+00 4.9935713700e-03 0.0000e+00 0.0000e+00
       11  1    1    2    0    0 +1.3268864670e-02 +1.5033545251e-03 +1.7016372286e-01 1.7068765785e-01 5.1099893000e-04 0.0000e+00 1.0000e+00
<vert_displacement>
122.27784873273298
</vert_displacement>
</event>
<event>
 4   1200 +8.5212000e+10 1.82021800e-02 7.81665300e-03            nan
       50 -1    0    0    0    0 +1.1841183324e-02 -3.6546448407e-03 +7.5008444175e+00 7.5008563165e+00 4.9935713700e-03 0.0000e+00 0.0000e+00
       11 -1    0    0    0    0 +4.7102402305e-19 -1.4537613924e-19 +2.9837203066e-16 5.1100000000e-04 5.1099893000e-04 0.0000e+00 1.0000e+00
       50  1    1    2    0    0 +7.1671112805e-03 +1.3495168678e-02 +7.1879558679e+00 7.1879738440e+00 4.9935713700e-03 0.0000e+00 0.0000e+00
       11  1    1    2    0    0 +4.6740720435e-03 -1.7149813519e-02 +3.1288854956e-01 3.1339347252e-01 5.1099893000e-04 0.0000e+00 1.0000e+00
<vert_displacement>
173.51469236226029
</vert_displacement>
</event>
<event>
 4   1200 +8.5212000e+10 1.52553300e-02 7.81665300e-03            nan
       50 -1    0    0    0    0 +1.2131114493e-01 +8.0813701349e-02 +3.6505409495e+01 3.6505700850e+01 4.9935713700e-03 0.0000e+00 0.0000e+00
       11 -1    0    0    0    0 -1.5725868395e-17 -1.0476083073e-17 -4.7322879176e-15 5.1100000000e-04 5.1099893000e-04 0.0000e+00 1.0000e+00
       50  1    1    2    0    0 +1.2955389265e-01 +6.9039254242e-02 +3.6300941484e+01 3.6301238659e+01 4.9935713700e-03 0.0000e+00 0.0000e+00
       11  1    1    2    0    0 -8.2427477209e-03 +1.1774447107e-02 +2.0446801112e-01 2.0497319138e-01 5.1099893000e-04 0.0000e+00 1.0000e+00
<vert_displacement>
380.52257254432249
</vert_displacement>
</event>
<event>
 4   1200 +8.5212000e+10 3.49063000e-02 7.81665300e-03            nan
       50 -1    0    0    0    0 +2.6080567766e-02 -6.9972817038e-04 +1.3303662888e+01 1.3303689408e+01 4.9935713700e-03 0.0000e+00 0.0000e+00
       11 -1    0    0    0    0 -1.3194925925e-18 +3.5401305136e-20 -6.7307141438e-16 5.1100000000e-04 5.1099893000e-04 0.0000e+00 1.0000e+00
       50  1    1    2    0    0 +1.7852688859e-02 -3.4706942535e-02 +1.2009726881e+01 1.2009791338e+01 4.9935713700e-03 0.0000e+00 0.0000e+00
       11  1    1    2    0    0 +8.2278789062e-03 +3.4007214365e-02 +1.2939360073e+00 1.2944090700e+00 5.1099893000e-04 0.0000e+00 1.0000e+00
<vert_displacement>
79.156595692563712
</vert_displacement>
</event>
<event>
 4   1200 +8.5212000e+10 2.17125800e-02 7.81665300e-03            nan
       50 -1    0    0    0    0 +1.0576893903e-01 +3.2699941776e-02 +3.3130318950e+01 3.3130504298e+01 4.9935713700e-03 0.0000e+00 0.0000e+00
       11 -1    0    0    0    0 +2.4367615802e-18 +7.5335880764e-19 +7.6327406796e-16 5.1100000000e-04 5.1099893000e-04 0.0000e+00 1.0000e+00
       50  1    1    2    0    0 +1.0972618479e-01 +5.2699409898e-02 +3.2687465717e+01 3.2687692745e+01 4.9935713700e-03 0.0000e+00 0.0000e+00
       11  1    1    2    0    0 -3.9572457606e-03 -1.9999468122e-02 +4.4285323323e-01 4.4332255280e-01 5.1099893000e-04 0.0000e+00 1.0000e+00
<vert_displacement>
369.49742498942368
</vert_displacement>
</event>
<event>
 4   1200 +8.5212000e+10 1.13287000e-02 7.81665300e-03            nan
       50 -1    0    0    0    0 +4.5333481713e-03 -6.7777710216e-03 +3.5716987388e+00 3.5717115373e+00 4.9935713700e-03 0.0000e+00 0.0000e+00
       11 -1    0    0    0    0 -2.0256350640e-19 +3.0285100810e-19 -1.5959414389e-16 5.1100000000e-04 5.1099893000e-04 0.0000e+00 1.0000e+00
       50  1    1    2    0    0 +1.1543283484e-02 +6.5828065505e-04 +3.4674476419e+00 3.4674705140e+00 4.9935713700e-03 0.0000e+00 0.0000e+00
       11  1    1    2    0    0 -7.0099353123e-03 -7.4360516767e-03 +1.0425109696e-01 1.0475202334e-01 5.1099893000e-04 0.0000e+00 1.0000e+00
<vert_displacement>
437.33794217697903
</vert_displacement>
</event>
<event>
 4   1200 +8.5212000e+10 2.68114000e-02 7.81665300e-03            nan
       50 -1    0    0    0    0 -1.4616552905e-02 -9.2456892437e-03 +4.5628169229e+00 4.5628524340e+00 4.9935713700e-03 0.0000e+00 0.0000e+00
       11 -1    0    0    0    0 -9.3357311602e-19 -5.9053095301e-19 +2.9143145037e-16 5.1100000000e-04 5.1099893000e-04 0.0000e+00 1.0000e+00
       50  1    1    2    0    0 -3.7636395751e-02 -1.7044802211e-03 +3.7314379101e+00 3.7316314416e+00 4.9935713700e-03 0.0000e+00 0.0000e+00
       11  1    1    2    0    0 +2.3019842846e-02 -7.5412090226e-03 +8.3137901282e-01 8.3173199234e-01 5.1099893000e-04 0.0000e+00 1.0000e+00
<vert_displacement>
335.92057147748159
</vert_displacement>
</event>
<event>
 4   1200 +8.5212000e+10 2.82775100e-02 7.81665300e-03            nan
       50 -1    0    0    0    0 +2.9856855198e-02 -2.4288700886e-03 +1.1309151612e+01 1.1309192387e+01 4.9935713700e-03 0.0000e+00 0.0000e+00
       11 -1    0    0    0    0 +2.1982850441e-19 -1.7883158673e-20 +8.3266434747e-17 5.1100000000e-04 5.1099893000e-04 0.0000e+00 1.0000e+00
       50  1    1    2    0    0 +1.9480167048e-02 -2.8845203331e-02 +1.0491951070e+01 1.0492009994e+01 4.9935713700e-03 0.0000e+00 0.0000e+00
       11  1    1    2    0    0 +1.0376688149e-02 +2.6416333242e-02 +8.1720054232e-01 8.1769339352e-01 5.1099893000e-04 0.0000e+00 1.0000e+00
<vert_displacement>
138.28940027749044
</vert_displacement>
</event>
<event>
 4   1200 +8.5212000e+10 7.81914100e-03 7.81665300e-03            nan
       50 -1    0    0    0    0 +5.7499221994e-03 -7.6008875068e-03 +1.1850450040e+01 1.1850454925e+01 4.9935713700e-03 0.0000e+00 0.0000e+00
       11 -1    0    0    0    0 -1.6160636759e-19 +2.1362929408e-19 -3.3306679967e-16 5.1100000000e-04 5.1099893000e-04 0.0000e+00 1.0000e+00
       50  1    1    2    0    0 +5.2748581969e-03 -1.5786317013e-03 +1.1814921957e+01 1.1814924295e+01 4.9935713700e-03 0.0000e+00 0.0000e+00
       11  1    1    2    0    0 +4.7506400250e-04 -6.0222558055e-03 +3.5528083250e-02 3.6041629682e-02 5.1099893000e-04 0.0000e+00 1.0000e+00
<vert_displacement>
480.17144831261896
</vert_displacement>
</event>
<event>
 4   1200 +8.5212000e+10 1.90612700e-02 7.81665300e-03            nan
       50 -1    0    0    0    0 +9.1209432461e-03 +2.3494372586e-03 +3.7491347117e+00 3.7491498682e+00 4.9935713700e-03 0.0000e+00 0.0000e+00
       11 -1    0    0    0    0 +5.1486980609e-19 +1.3262381676e-19 +2.1163559622e-16 5.1100000000e-04 5.1099893000e-04 0.0000e+00 1.0000e+00
       50  1    1    2    0    0 -9.7906159253e-03 -1.5894759773e-03 +3.3817909723e+00 3.3818092049e+00 4.9935713700e-03 0.0000e+00 0.0000e+00
       11  1    1    2    0    0 +1.8911559171e-02 +3.9389132359e-03 +3.6734373945e-01 3.6785166323e-01 5.1099893000e-04 0.0000e+00 1.0000e+00
<vert_displacement>
372.40166759029199
</vert_displacement>
</event>
<event>
 4   1200 +8.5212000e+10 1.70228000e-02 7.81665300e-03            nan
       50 -1    0    0    0    0 +2.5648853114e-02 +2.2011095043e-02 +1.1163711776e+01 1.1163764056e+01 4.9935713700e-03 0.0000e+00 0.0000e+00
       11 -1    0    0    0    0 -4.3043874452e-19 -3.6938993232e-19 -1.8734927678e-16 5.1100000000e-04 5.1099893000e-04 0.0000e+00 1.0000e+00
       50  1    1    2    0    0 +3.8194760773e-02 +1.1908341011e-02 +1.0898224215e+01 1.0898298795e+01 4.9935713700e-03 0.0000e+00 0.0000e+00
       11  1    1    2    0    0 -1.2545907659e-02 +1.0102754032e-02 +2.6548756092e-01 2.6597626127e-01 5.1099893000e-04 0.0000e+00 1.0000e+00
<vert_displacement>
313.77182161223550
</vert_displacement>
</event>
<event>
 4   1200 +8.5212000e+10 3.61131500e-02 7.81665300e-03            nan
       50 -1    0    0    0    0 +1.3389946136e-01 -2.0955716428e-02 +4.5518697236e+01 4.5518899275e+01 4.9935713700e-03 0.0000e+00 0.0000e+00
       11 -1    0    0    0    0 -1.1512149801e-17 +1.8016901955e-18 -3.9135188148e-15 5.1100000000e-04 5.1099893000e-04 0.0000e+00 1.0000e+00
       50  1    1    2    0    0 +1.4547589050e-01 -5.2659951049e-02 +4.4230467295e+01 4.4230738163e+01 4.9935713700e-03 0.0000e+00 0.0000e+00
       11  1    1    2    0    0 -1.1576429147e-02 +3.1704234621e-02 +1.2882299407e+00 1.2886721125e+00 5.1099893000e-04 0.0000e+00 1.0000e+00
<vert_displacement>
246.54526022513409
</vert_displacement>
</event>
<event>
 4   1200 +8.5212000e+10 2.21319500e-02 7.81665300e-03            nan
       50 -1    0    0    0    0 +6.7057483457e-03 +1.3291193898e-02 +6.4572030220e+00 6.4572221137e+00 4.9935713700e-03 0.0000e+00 0.0000e+00
       11 -1    0    0    0    0 -2.6662055420e-19 -5.2845786933e-19 -2.5673839213e-16 5.1100000000e-04 5.1099893000e-04 0.0000e+00 1.0000e+00
       50  1    1    2    0    0 +2.0834686413e-02 -3.5513407695e-03 +5.9645798170e+00 5.9646193529e+00 4.9935713700e-03 0.0000e+00 0.0000e+00
       11  1    1    2    0    0 -1.4128938067e-02 +1.6842534668e-02 +4.9262320502e-01 4.9311376081e-01 5.1099893000e-04 0.0000e+00 1.0000e+00
<vert_displacement>
352.36675805934647
</vert_displacement>
</event>
<event>
 4   1200 +8.5212000e+10 1.28818500e-02 7.81665300e-03            nan
       50 -1    0    0    0    0 -3.4336237428e-02 +1.0358264807e-01 +4.1898752844e+01 4.1898895250e+01 4.9935713700e-03 0.0000e+00 0.0000e+00
       11 -1    0    0    0    0 -7.0511843084e-19 +2.1271414617e-18 +8.6041992579e-16 5.1100000000e-04 5.1099893000e-04 0.0000e+00 -1.0000e+00
       50  1    1    2    0    0 -3.2650486762e-02 +1.1501043731e-01 +4.1760295335e+01 4.1760466770e+01 4.9935713700e-03 0.0000e+00 0.0000e+00
       11  1    1    2    0    0 -1.6857506659e-03 -1.1427789236e-02 +1.3845750936e-01 1.3893948013e-01 5.1099893000e-04 0.0000e+00 -1.0000e+00
<vert_displacement>
315.19344064713192
</vert_displacement>
</event>
<event>
 4   1200 +8.5212000e+10 7.11673000e-03 7.81665300e-03            nan
       50 -1    0    0    0    0 -7.1483968741e-02 +1.1456875817e-02 +2.9625555859e+01 2.9625644738e+01 4.9935713700e-03 0.0000e+00 0.0000e+00
       11 -1    0    0    0    0 +3.3485832046e-19 -5.3668399520e-20 -1.3877746371e-16 5.1100000000e-04 5.1099893000e-04 0.0000e+00 1.0000e+00
       50  1    1    2    0    0 -7.5214454892e-02 +1.4814399035e-02 +2.9600365031e+01 2.9600464719e+01 4.9935713700e-03 0.0000e+00 0.0000e+00
       11  1    1    2    0    0 +3.7304861505e-03 -3.3575232187e-03 +2.5190828009e-02 2.5691018367e-02 5.1099893000e-04 0.0000e+00 1.0000e+00
<vert_displacement>
153.30607770323925
</vert_displacement>
</event>
<event>
 4   1200 +8.5212000e+10 2.86029800e-02 7.81665300e-03            nan
       50 -1    0    0    0    0 +1.7446796389e-02 -4.1201051676e-02 +1.9456719836e+01 1.9456771922e+01 4.9935713700e-03 0.0000e+00 0.0000e+00
       11 -1    0    0    0    0 -1.5804067750e-18 +3.7321706377e-18 -1.7624743915e-15 5.1100000000e-04 5.1099893000e-04 0.0000e+00 1.0000e+00
       50  1    1    2    0    0 -3.1471450333e-03 -1.9524452569e-02 +1.8646887573e+01 1.8646898729e+01 4.9935713700e-03 0.0000e+00 0.0000e+00
       11  1    1    2    0    0 +2.0593941423e-02 -2.1676599107e-02 +8.0983226342e-01 8.1038419368e-01 5.1099893000e-04 0.0000e+00 1.0000e+00
<vert_displacement>
383.00028383916140
</vert_displacement>
</event>
<event>
 4   1200 +8.5212000e+10 7.60384200e-03 7.81665300e-03            nan
       50 -1    0    0    0    0 -1.7199759054e-04 -3.8751239422e-03 +2.8579982113e+00 2.8580052061e+00 4.9935713700e-03 0.0000e+00 0.0000e+00
       11 -1    0    0    0    0 +1.4615655636e-21 +3.2929227036e-20 -2.4286106296e-17 5.1100000000e-04 5.1099893000e-04 0.0000e+00 1.0000e+00
       50  1    1    2    0    0 +3.5498848272e-03 +5.3304981041e-04 +2.8254498221e+00 2.8254565151e+00 4.9935713700e-03 0.0000e+00 0.0000e+00
       11  1    1    2    0    0 -3.7218824177e-03 -4.4081737526e-03 +3.2548389270e-02 3.3059690993e-02 5.1099893000e-04 0.0000e+00 1.0000e+00
<vert_displacement>
251.68337756817715
</vert_displacement>
</event>
<event>
 4   1200 +8.5212000e+10 1.81085700e-02 7.81665300e-03            nan
       50 -1    0    0    0    0 -3.6867888346e-03 -8.9491811765e-03 +3.7630014046e+00 3.7630171654e+00 4.9935713700e-03 0.0000e+00 0.0000e+00
       11 -1    0    0    0    0 -1.0197505606e-20 -2.4753065422e-20 +1.0408306427e-17 5.1100000000e-04 5.1099893000e-04 0.0000e+00 1.0000e+00
       50  1    1    2    0    0 +1.0046015834e-02 -1.9268908800e-02 +3.4382889168e+00 3.4383612120e+00 4.9935713700e-03 0.0000e+00 0.0000e+00
       11  1    1    2    0    0 -1.3732804669e-02 +1.0319727623e-02 +3.2471248788e-01 3.2516695344e-01 5.1099893000e-04 0.0000e+00 1.0000e+00
<vert_displacement>
439.83619865486094
</vert_displacement>
</event>
<event>
 4   1200 +8.5212000e+10 1.99796700e-02 7.81665300e-03            nan
       50 -1    0    0    0    0 +2.9080683231e-02 -1.6460688358e-03 +1.3677340963e+01 1.3677372889e+01 4.9935713700e-03 0.0000e+00 0.0000e+00
       11 -1    0    0    0    0 -1.4753402622e-20 +8.3509441940e-22 -6.9388781694e-18 5.1100000000e-04 5.1099893000e-04 0.0000e+00 1.0000e+00
       50  1    1    2    0    0 +2.9535344838e-02 -2.0905547094e-02 +1.3300740444e+01 1.3300790603e+01 4.9935713700e-03 0.0000e+00 0.0000e+00
       11  1    1    2    0    0 -4.5466160706e-04 +1.9259478259e-02 +3.7660051853e-01 3.7709328541e-01 5.1099893000e-04 0.0000e+00 1.0000e+00
<vert_displacement>
248.94033197332786
</vert_displacement>
</event>
<event>
 4   1200 +8.5212000e+10 2.57598300e-02 7.81665300e-03            nan
       50 -1    0    0    0    0 -9.0782044129e-03 -1.1427321421e-03 +6.7771810999e+00 6.7771891162e+00 4.9935713700e-03 0.0000e+00 0.0000e+00
       11 -1    0    0    0    0 -6.8781625873e-19 -8.6579868764e-20 +5.1347768092e-16 5.1100000000e-04 5.1099893000e-04 0.0000e+00 1.0000e+00
       50  1    1    2    0    0 -1.5261609978e-02 +2.3223139271e-02 +6.0803386050e+00 6.0804041575e+00 4.9935713700e-03 0.0000e+00 0.0000e+00
       11  1    1    2    0    0 +6.1834055654e-03 -2.4365871413e-02 +6.9684249488e-01 6.9729595868e-01 5.1099893000e-04 0.0000e+00 1.0000e+00
<vert_displacement>
147.89381690940129
</vert_displacement>
</event>
<event>
 4   1200 +8.5212000e+10 1.48153700e-02 7.81665300e-03            nan
       50 -1    0    0    0    0 +2.5355348116e-03 +9.4214975334e-03 +1.6387545638e+01 1.6387549304e+01 4.9935713700e-03 0.0000e+00 0.0000e+00
       11 -1    0    0    0    0 +4.5091545820e-20 +1.6755040624e-19 +2.9143349231e-16 5.1100000000e-04 5.1099893000e-04 0.0000e+00 1.0000e+00
       50  1    1    2    0    0 -4.8201875507e-03 -2.5589825150e-03 +1.6194908390e+01 1.6194910079e+01 4.9935713700e-03 0.0000e+00 0.0000e+00
       11  1    1    2    0    0 +7.3557223623e-03 +1.1980480048e-02 +1.9263724867e-01 1.9315022456e-01 5.1099893000e-04 0.0000e+00 1.0000e+00
<vert_displacement>
409.78552213320694
</vert_displacement>
</event>
<event>
 4   1200 +8.5212000e+10 1.76014400e-02 7.81665300e-03            nan
       50 -1    0    0    0    0 +5.2936047494e-02 +5.0075949650e-03 +2.5298190694e+01 2.5298247066e+01 4.9935713700e-03 0.0000e+00 0.0000e+00
       11 -1    0    0    0    0 -3.9493010554e-18 -3.7359230651e-19 -1.8873749730e-15 5.1100000000e-04 5.1099893000e-04 0.0000e+00 1.0000e+00
       50  1    1    2    0    0 +3.8960928589e-02 +1.5233288961e-02 +2.5016324857e+01 2.5016360333e+01 4.9935713700e-03 0.0000e+00 0.0000e+00
       11  1    1    2    0    0 +1.3975118905e-02 -1.0225693996e-02 +2.8186583648e-01 2.8239773310e-01 5.1099893000e-04 0.0000e+00 1.0000e+00
<vert_displacement>
53.658630012262208
</vert_displacement>
</event>
<event>
 4   1200 +8.5212000e+10 7.95502600e-03 7.81665300e-03            nan
       50 -1    0    0    0    0 +1.3910863673e-02 -1.2608140732e-02 +1.0692489024e+01 1.0692506672e+01 4.9935713700e-03 0.0000e+00 0.0000e+00
       11 -1    0    0    0    0 +1.2006502071e-18 -1.0882118563e-18 +9.2287146661e-16 5.1100000000e-04 5.1099893000e-04 0.0000e+00 1.0000e+00
       50  1    1    2    0    0 +1.8734853758e-02 -8.7426466849e-03 +1.0654831324e+01 1.0654852552e+01 4.9935713700e-03 0.0000e+00 0.0000e+00
       11  1    1    2    0    0 -4.8239900849e-03 -3.8654940469e-03 +3.7657699595e-02 3.8165119982e-02 5.1099893000e-04 0.0000e+00 1.0000e+00
<vert_displacement>
36.559224605289899
</vert_displacement>
</event>
<event>
 4   1200 +8.5212000e+10 1.34084200e-02 7.81665300e-03            nan
       50 -1    0    0    0    0 -8.5477854442e-03 +1.2108827426e-02 +9.0538249271e+00 9.0538384365e+00 4.9935713700e-03 0.0000e+00 0.0000e+00
       11 -1    0    0    0    0 -1.7687846047e-19 +2.5056674236e-19 +1.8734988435e-16 5.1100000000e-04 5.1099893000e-04 0.0000e+00 1.0000e+00
       50  1    1    2    0    0 -3.8103866098e-03 +3.3700069064e-04 +8.8996880511e+00 8.8996902741e+00 4.9935713700e-03 0.0000e+00 0.0000e+00
       11  1    1    2    0    0 -4.7373988344e-03 +1.1771826735e-02 +1.5413687595e-01 1.5465916235e-01 5.1099893000e-04 0.0000e+00 1.0000e+00
<vert_displacement>
229.82605796531288
</vert_displacement>
</event>
<event>
 4   1200 +8.5212000e+10 2.29083900e-02 7.81665300e-03            nan
       50 -1    0    0    0    0 +1.3414546963e-02 +8.8124456584e-03 +1.0536146100e+01 1.0536159509e+01 4.9935713700e-03 0.0000e+00 0.0000e+00
       11 -1    0    0    0    0 -1.1484902737e-19 -7.5448005469e-20 -9.0205516086e-17 5.1100000000e-04 5.1099893000e-04 0.0000e+00 1.0000e+00
       50  1    1    2    0    0 +3.3134150441e-02 +1.7587833281e-02 +1.0021830720e+01 1.0021902171e+01 4.9935713700e-03 0.0000e+00 0.0000e+00
       11  1    1    2    0    0 -1.9719603478e-02 -8.7753876224e-03 +5.1431538006e-01 5.1476833768e-01 5.1099893000e-04 0.0000e+00 1.0000e+00
<vert_displacement>
197.46353291968498
</vert_displacement>
</event>
<event>
 4   1200 +8.5212000e+10 8.53232600e-03 7.81665300e-03            nan
       50 -1    0    0    0    0 +1.5413718089e-02 +2.3581515038e-03 +5.8431895932e+00 5.8432125327e+00 4.9935713700e-03 0.0000e+00 0.0000e+00
       11 -1    0    0    0    0 +1.3544963970e-18 +2.0722499898e-19 +5.1347632057e-16 5.1100000000e-04 5.1099893000e-04 0.0000e+00 1.0000e+00
       50  1    1    2    0    0 +1.0748349106e-02 -2.8806506604e-03 +5.7959820648e+00 5.7959948979e+00 4.9935713700e-03 0.0000e+00 0.0000e+00
       11  1    1    2    0    0 +4.6653689832e-03 +5.2388021641e-03 +4.7207528422e-02 4.7728634754e-02 5.1099893000e-04 0.0000e+00 1.0000e+00
<vert_displacement>
54.730591594831516
</vert_displacement>
</event>
<event>
 4   1200 +8.5212000e+10 4.47333300e-02 7.81665300e-03            nan
       50 -1    0    0    0    0 +4.8191647119e-02 -1.2101645726e-01 +4.8079986862e+01 4.8080163571e+01 4.9935713700e-03 0.0000e+00 0.0000e+00
       11 -1    0    0    0    0 -4.1590799328e-18 +1.0444073797e-17 -4.1494433264e-15 5.1100000000e-04 5.1099893000e-04 0.0000e+00 1.0000e+00
       50  1    1    2    0    0 +4.5618815066e-02 -1.6038642707e-01 +4.6061492249e+01 4.6061794342e+01 4.9935713700e-03 0.0000e+00 0.0000e+00
       11  1    1    2    0    0 +2.5728320532e-03 +3.9369969807e-02 +2.0184946132e+00 2.0188802289e+00 5.1099893000e-04 0.0000e+00 1.0000e+00
<vert_displacement>
468.40520739967332
</vert_displacement>
</event>
<event>
 4   1200 +8.5212000e+10 1.20005000e-02 7.81665300e-03            nan
       50 -1    0    0    0    0 -2.7582025901e-02 +3.3974098201e-02 +2.7683129265e+01 2.7683164303e+01 4.9935713700e-03 0.0000e+00 0.0000e+00
       11 -1    0    0    0    0 -2.3506047147e-19 +2.8953520563e-19 +2.3592209797e-16 5.1100000000e-04 5.1099893000e-04 0.0000e+00 1.0000e+00
       50  1    1    2    0    0 -2.5911208189e-02 +4.4631439771e-02 +2.7566107703e+01 2.7566156464e+01 4.9935713700e-03 0.0000e+00 0.0000e+00
       11  1    1    2    0    0 -1.6708177122e-03 -1.0657341570e-02 +1.1702156207e-01 1.1751883964e-01 5.1099893000e-04 0.0000e+00 1.0000e+00
<vert_displacement>
196.92137109234329
</vert_displacement>
</event>
<event>
 4   1200 +8.5212000e+10 9.25218800e-03 7.81665300e-03            nan
       50 -1    0    0    0    0 -2.6673958753e-02 -2.0096206368e-02 +1.1651270744e+01 1.1651319678e+01 4.9935713700e-03 0.0000e+00 0.0000e+00
       11 -1    0    0    0    0 -4.7656692607e-19 -3.5904634116e-19 +2.0816596196e-16 5.1100000000e-04 5.1099893000e-04 0.0000e+00 1.0000e+00
       50  1    1    2    0    0 -2.1063460312e-02 -1.4452237515e-02 +1.1591622974e+01 1.1591652196e+01 4.9935713700e-03 0.0000e+00 0.0000e+00
       11  1    1    2    0    0 -5.6104984408e-03 -5.6439688530e-03 +5.9647769731e-02 6.0178481461e-02 5.1099893000e-04 0.0000e+00 1.0000e+00
<vert_displacement>
176.04561944778487
</vert_displacement>
</event>
<event>
 4   1200 +8.5212000e+10 1.57234900e-02 7.81665300e-03            nan
       50 -1    0    0    0    0 +3.1746505734e-02 -1.8953078797e-02 +1.1876073301e+01 1.1876131905e+01 4.9935713700e-03 0.0000e+00 0.0000e+00
       11 -1    0    0    0    0 -2.1701865381e-18 +1.2956297239e-18 -8.1184665230e-16 5.1100000000e-04 5.1099893000e-04 0.0000e+00 -1.0000e+00
       50  1    1    2    0    0 +2.2173735764e-02 -3.0500915413e-02 +1.1654417096e+01 1.1654479172e+01 4.9935713700e-03 0.0000e+00 0.0000e+00
       11  1    1    2    0    0 +9.5727699697e-03 +1.1547836616e-02 +2.2165620421e-01 2.2216373340e-01 5.1099893000e-04 0.0000e+00 -1.0000e+00
<vert_displacement>
134.05775426915605
</vert_displacement>
</event>
<event>
 4   1200 +8.5212000e+10 6.37151100e-03 7.81665300e-03            nan
       50 -1    0    0    0    0 +4.1432047325e-02 -2.4092885843e-02 +1.5669146827e+01 1.5669220922e+01 4.9935713700e-03 0.0000e+00 0.0000e+00
       11 -1    0    0    0    0 +3.0090063730e-18 -1.7497481231e-18 +1.1379732769e-15 5.1100000000e-04 5.1099893000e-04 0.0000e+00 1.0000e+00
       50  1    1    2    0    0 +4.3122343894e-02 -2.0510574309e-02 +1.5653808973e+01 1.5653882602e+01 4.9935713700e-03 0.0000e+00 0.0000e+00
       11  1    1    2    0    0 -1.6902965689e-03 -3.5823115339e-03 +1.5337854040e-02 1.5849320013e-02 5.1099893000e-04 0.0000e+00 1.0000e+00
<vert_displacement>
146.37094661900963
</vert_displacement>
</event>
<event>
 4   1200 +8.5212000e+10 1.92993100e-02 7.81665300e-03            nan
       50 -1    0    0    0    0 -1.0855105622e-02 -2.7369680764e-03 +2.6456418547e+01 2.6456421387e+01 4.9935713700e-03 0.0000e+00 0.0000e+00
       11 -1    0    0    0    0 -1.2868610144e-18 -3.2446460104e-19 +3.1363797638e-15 5.1100000000e-04 5.1099893000e-04 0.0000e+00 1.0000e+00
       50  1    1    2    0    0 -1.8747802321e-02 +1.4120730935e-02 +2.6111872624e+01 2.6111883650e+01 4.9935713700e-03 0.0000e+00 0.0000e+00
       11  1    1    2    0    0 +7.8926966984e-03 -1.6857699011e-02 +3.4454592337e-01 3.4504873730e-01 5.1099893000e-04 0.0000e+00 1.0000e+00
<vert_displacement>
147.31743760510045
</vert_displacement>
</event>
<event>
 4   1200 +8.5212000e+10 5.67130100e-03 7.81665300e-03            nan
       50 -1    0    0    0    0 -6.3201449122e-03 -8.3581941950e-03 +9.9177616035e+00 9.9177683963e+00 4.9935713700e-03 0.0000e+00 0.0000e+00
       11 -1    0    0    0    0 -1.4592083831e-19 -1.9297574986e-19 +2.2898337102e-16 5.1100000000e-04 5.1099893000e-04 0.0000e+00 1.0000e+00
       50  1    1    2    0    0 -3.6331217862e-03 -8.5311764559e-03 +9.9106854300e+00 9.9106910258e+00 4.9935713700e-03 0.0000e+00 0.0000e+00
       11  1    1    2    0    0 -2.6870231260e-03 +1.7298226091e-04 +7.0761735185e-03 7.5883705571e-03 5.1099893000e-04 0.0000e+00 1.0000e+00
<vert_displacement>
423.32076812600093
</vert_displacement>
</event>
<event>
 4   1200 +8.5212000e+10 1.09420300e-02 7.81665300e-03            nan
       50 -1    0    0    0    0 +1.3453354660e-02 -1.8199269604e-02 +1.4589745594e+01 1.4589764002e+01 4.9935713700e-03 0.0000e+00 0.0000e+00
       11 -1    0    0    0    0 -5.3106867977e-19 +7.1841279185e-19 -5.7592750110e-16 5.1100000000e-04 5.1099893000e-04 0.0000e+00 1.0000e+00
       50  1    1    2    0    0 +4.2291947011e-03 -2.1442546674e-02 +1.4496396666e+01 1.4496414002e+01 4.9935713700e-03 0.0000e+00 0.0000e+00
       11  1    1    2    0    0 +9.2241599590e-03 +3.2432770701e-03 +9.3348928045e-02 9.3861000742e-02 5.1099893000e-04 0.0000e+00 1.0000e+00
<vert_displacement>
461.94075491922928
</vert_displacement>
</event>
<event>
 4   1200 +8.5212000e+10 1.38263100e-02 7.81665300e-03            nan
       50 -1    0    0    0    0 -1.2719030127e-02 -3.6549487706e-03 +1.0471464481e+01 1.0471474034e+01 4.9935713700e-03 0.0000e+00 0.0000e+00
       11 -1    0    0    0    0 -4.8040921369e-19 -1.3805070414e-19 +3.9551663667e-16 5.1100000000e-04 5.1099893000e-04 0.0000e+00 1.0000e+00
       50  1    1    2    0    0 -8.7312642891e-03 -1.5921610742e-02 +1.0306189615e+01 1.0306206822e+01 4.9935713700e-03 0.0000e+00 0.0000e+00
       11  1    1    2    0    0 -3.9877658378e-03 +1.2266661971e-02 +1.6527486563e-01 1.6577821209e-01 5.1099893000e-04 0.0000e+00 1.0000e+00
<vert_displacement>
249.44802177621813
</vert_displacement>
</event>
<event>
 4   1200 +8.5212000e+10 2.29095900e-02 7.81665300e-03            nan
       50 -1    0    0    0    0 -4.2500405367e-02 +2.8820769275e-02 +1.5196294681e+01 1.5196382263e+01 4.9935713700e-03 0.0000e+00 0.0000e+00
       11 -1    0    0    0    0 -2.9885729010e-18 +2.0266387884e-18 +1.0685835602e-15 5.1100000000e-04 5.1099893000e-04 0.0000e+00 1.0000e+00
       50  1    1    2    0    0 -2.7478121415e-02 +4.5602588913e-02 +1.4690254859e+01 1.4690352188e+01 4.9935713700e-03 0.0000e+00 0.0000e+00
       11  1    1    2    0    0 -1.5022283952e-02 -1.6781819638e-02 +5.0603982148e-01 5.0654107487e-01 5.1099893000e-04 0.0000e+00 1.0000e+00
<vert_displacement>
435.69858279166493
</vert_displacement>
</event>
<event>
 4   1200 +8.5212000e+10 2.47080900e-02 7.81665300e-03            nan
       50 -1    0    0    0    0 +8.4695837448e-03 -7.4780430864e-03 +3.3257108504e+00 3.3257337914e+00 4.9935713700e-03 0.0000e+00 0.0000e+00
       11 -1    0    0    0    0 -3.4458782708e-19 +3.0424666614e-19 -1.3530765029e-16 5.1100000000e-04 5.1099893000e-04 0.0000e+00 1.0000e+00
       50  1    1    2    0    0 +2.8175684767e-02 +5.1183693521e-03 +2.5876968736e+00 2.5878601416e+00 4.9935713700e-03 0.0000e+00 0.0000e+00
       11  1    1    2    0    0 -1.9706101022e-02 -1.2596412439e-02 +7.3801397683e-01 7.3838464985e-01 5.1099893000e-04 0.0000e+00 1.0000e+00
<vert_displacement>
218.24442624634744
</vert_displacement>
</event>
<event>
 4   1200 +8.5212000e+10 1.29485000e-02 7.81665300e-03            nan
       50 -1    0    0    0    0 +2.1078590059e-02 +4.0723279790e-03 +8.7651650120e+00 8.7651927255e+00 4.9935713700e-03 0.0000e+00 0.0000e+00
       11 -1    0    0    0    0 +1.9189702684e-18 +3.7073999224e-19 +7.9797040545e-16 5.1100000000e-04 5.1099893000e-04 0.0000e+00 1.0000e+00
       50  1    1    2    0    0 +1.9645401403e-02 -7.8905124735e-03 +8.6232042111e+00 8.6232316451e+00 4.9935713700e-03 0.0000e+00 0.0000e+00
       11  1    1    2    0    0 +1.4331886561e-03 +1.1962840452e-02 +1.4196080090e-01 1.4247208040e-01 5.1099893000e-04 0.0000e+00 1.0000e+00
<vert_displacement>
356.96738741637108
</vert_displacement>
</event>
<event>
 4   1200 +8.5212000e+10 1.40806100e-02 7.81665300e-03            nan
       50 -1    0    0    0    0 -7.9297428815e-04 +1.5304002283e-03 +3.4516092720e+00 3.4516133145e+00 4.9935713700e-03 0.0000e+00 0.0000e+00
       11 -1    0    0    0    0 -5.6592128011e-20 +1.0921994183e-19 +2.4633070287e-16 5.1100000000e-04 5.1099893000e-04 0.0000e+00 1.0000e+00
       50  1    1    2    0    0 +1.2081081658e-02 -1.4889022793e-03 +3.2726473982e+00 3.2726738453e+00 4.9935713700e-03 0.0000e+00 0.0000e+00
       11  1    1    2    0    0 -1.2874055947e-02 +3.0193025076e-03 +1.7896187379e-01 1.7945046920e-01 5.1099893000e-04 0.0000e+00 1.0000e+00
<vert_displacement>
215.04899560567472
</vert_displacement>
</event>
<event>
 4   1200 +8.5212000e+10 1.60280100e-02 7.81665300e-03            nan
       50 -1    0    0    0    0 +2.0801570246e-03 -2.0274067532e-02 +8.3381992050e+00 8.3382256076e+00 4.9935713700e-03 0.0000e+00 0.0000e+00
       11 -1    0    0    0    0 +5.4355369352e-19 -5.2976982794e-18 +2.1788061774e-15 5.1100000000e-04 5.1099893000e-04 0.0000e+00 1.0000e+00
       50  1    1    2    0    0 +6.7758815027e-03 -5.2369442004e-03 +8.1046916611e+00 8.1046977238e+00 4.9935713700e-03 0.0000e+00 0.0000e+00
       11  1    1    2    0    0 -4.6957244781e-03 -1.5037123332e-02 +2.3350754394e-01 2.3403888374e-01 5.1099893000e-04 0.0000e+00 1.0000e+00
<vert_displacement>
309.61144068073946
</vert_displacement>
</event>
<event>
 4   1200 +8.5212000e+10 2.79953000e-02 7.81665300e-03            nan
       50 -1    0    0    0    0 +2.6180118783e-02 -2.4330247678e-02 +1.2952280600e+01 1.2952330872e+01 4.9935713700e-03 0.0000e+00 0.0000e+00
       11 -1    0    0    0    0 +7.0126791046e-19 -6.5171675084e-19 +3.4694337436e-16 5.1100000000e-04 5.1099893000e-04 0.0000e+00 1.0000e+00
       50  1    1    2    0    0 +2.4823234300e-02 -5.0389859960e-02 +1.2161353802e+01 1.2161484555e+01 4.9935713700e-03 0.0000e+00 0.0000e+00
       11  1    1    2    0    0 +1.3568844826e-03 +2.6059612282e-02 +7.9092679725e-01 7.9135731769e-01 5.1099893000e-04 0.0000e+00 1.0000e+00
<vert_displacement>
285.75588772883822
</vert_displacement>
</event>
<event>
 4   1200 +8.5212000e+10 6.20019800e-02 7.81665300e-03            nan
       50 -1    0    0    0    0 -9.7429335682e-02 +8.9823840970e-04 +3.2571896117e+01 3.2572042228e+01 4.9935713700e-03 0.0000e+00 0.0000e+00
       11 -1    0    0    0    0 +1.1249527740e-17 -1.0371371042e-19 -3.7608636697e-15 5.1100000000e-04 5.1099893000e-04 0.0000e+00 1.0000e+00
       50  1    1    2    0    0 -9.0452976783e-02 +6.2297066106e-02 +2.8264775095e+01 2.8264988922e+01 4.9935713700e-03 0.0000e+00 0.0000e+00
       11  1    1    2    0    0 -6.9763588989e-03 -6.1398827696e-02 +4.3071210227e+00 4.3075643061e+00 5.1099893000e-04 0.0000e+00 1.0000e+00
<vert_displacement>
157.04186486003141
</vert_displacement>
</event>
<event>
 4   1200 +8.5212000e+10 4.35177700e-02 7.81665300e-03            nan
       50 -1    0    0    0    0 -3.3961000460e-03 -3.4317637575e-02 +1.6223863965e+01 1.6223901385e+01 4.9935713700e-03 0.0000e+00 0.0000e+00
       11 -1    0    0    0    0 -2.4401960921e-19 -2.4658215002e-18 +1.1657315424e-15 5.1100000000e-04 5.1099893000e-04 0.0000e+00 1.0000e+00
       50  1    1    2    0    0 -6.4924329805e-03 -7.2958349791e-02 +1.4122542777e+01 1.4122733605e+01 4.9935713700e-03 0.0000e+00 0.0000e+00
       11  1    1    2    0    0 +3.0963329346e-03 +3.8640712215e-02 +2.1013211888e+00 2.1016787793e+00 5.1099893000e-04 0.0000e+00 1.0000e+00
<vert_displacement>
52.320993423550959
</vert_displacement>
</event>
<event>
 4   1200 +8.5212000e+10 3.75455700e-02 7.81665300e-03            nan
       50 -1    0    0    0    0 -9.5510345972e-03 -3.3748741082e-02 +2.7437817335e+01 2.7437840207e+01 4.9935713700e-03 0.0000e+00 0.0000e+00
       11 -1    0    0    0    0 +2.4154093886e-19 +8.5348896219e-19 -6.9388882345e-16 5.1100000000e-04 5.1099893000e-04 0.0000e+00 1.0000e+00
       50  1    1    2    0    0 -4.5807941431e-02 -3.7807621611e-02 +2.6008306908e+01 2.6008375207e+01 4.9935713700e-03 0.0000e+00 0.0000e+00
       11  1    1    2    0    0 +3.6256906834e-02 +4.0588805298e-03 +1.4295104273e+00 1.4299760000e+00 5.1099893000e-04 0.0000e+00 1.0000e+00
<vert_displacement>
411.12006518408231
</vert_displacement>
</event>
<event>
 4   1200 +8.5212000e+10 2.39115800e-02 7.81665300e-03            nan
       50 -1    0    0    0    0 +1.8959065552e-02 +2.5038566418e-02 +1.1465819303e+01 1.1465863404e+01 4.9935713700e-03 0.0000e+00 0.0000e+00
       11 -1    0    0    0    0 -1.0326257780e-18 -1.3637522934e-18 -6.2449810857e-16 5.1100000000e-04 5.1099893000e-04 0.0000e+00 1.0000e+00
       50  1    1    2    0    0 -3.7142600404e-03 +3.2416542672e-02 +1.0903078811e+01 1.0903128777e+01 4.9935713700e-03 0.0000e+00 0.0000e+00
       11  1    1    2    0    0 +2.2673325592e-02 -7.3779762533e-03 +5.6274049150e-01 5.6324562681e-01 5.1099893000e-04 0.0000e+00 1.0000e+00
<vert_displacement>
153.50798735841377
</vert_displacement>
</event>
<event>
 4   1200 +8.5212000e+10 4.16562300e-02 7.81665300e-03            nan
       50 -1    0    0    0    0 +2.0902095930e-02 +1.0601578542e-02 +3.1978683320e+01 3.1978692298e+01 4.9935713700e-03 0.0000e+00 0.0000e+00
       11 -1    0    0    0    0 +2.8754687141e-18 +1.4584426136e-18 +4.3992575536e-15 5.1100000000e-04 5.1099893000e-04 0.0000e+00 1.0000e+00
       50  1    1    2    0    0 +5.8325191193e-02 +2.4907121970e-02 +3.0206901536e+01 3.0206968526e+01 4.9935713700e-03 0.0000e+00 0.0000e+00
       11  1    1    2    0    0 -3.7423095263e-02 -1.4305543428e-02 +1.7717817840e+00 1.7722347722e+00 5.1099893000e-04 0.0000e+00 1.0000e+00
<vert_displacement>
229.41434584219871
</vert_displacement>
</event>
<event>
 4   1200 +8.5212000e+10 2.01994200e-02 7.81665300e-03            nan
       50 -1    0    0    0    0 -1.7723148438e-02 -6.4913538312e-05 +9.4010080102e+00 9.4010260428e+00 4.9935713700e-03 0.0000e+00 0.0000e+00
       11 -1    0    0    0    0 -1.6220999566e-18 -5.9411705572e-21 +8.6042131504e-16 5.1100000000e-04 5.1099893000e-04 0.0000e+00 1.0000e+00
       50  1    1    2    0    0 -1.7612675502e-02 -1.9624620748e-02 +9.0098340119e+00 9.0098739830e+00 4.9935713700e-03 0.0000e+00 0.0000e+00
       11  1    1    2    0    0 -1.1047293630e-04 +1.9559707210e-02 +3.9117399834e-01 3.9166305985e-01 5.1099893000e-04 0.0000e+00 1.0000e+00
<vert_displacement>
83.098007889105546
</vert_displacement>
</event>
<event>
 4   1200 +8.5212000e+10 1.24139600e-02 7.81665300e-03            nan
       50 -1    0    0    0    0 -1.7752248519e-03 +7.5988963477e-03 +6.1534598491e+00 6.1534668233e+00 4.9935713700e-03 0.0000e+00 0.0000e+00
       11 -1    0    0    0    0 -3.6032666402e-20 +1.5423876971e-19 +1.2489998984e-16 5.1100000000e-04 5.1099893000e-04 0.0000e+00 1.0000e+00
       50  1    1    2    0    0 +9.6793619868e-04 -3.5990594187e-03 +6.0243536364e+00 6.0243568588e+00 4.9935713700e-03 0.0000e+00 0.0000e+00
       11  1    1    2    0    0 -2.7431610506e-03 +1.1197955766e-02 +1.2910621278e-01 1.2962096453e-01 5.1099893000e-04 0.0000e+00 1.0000e+00
<vert_displacement>
248.35409822667984
</vert_displacement>
</event>
<event>
 4   1200 +8.5212000e+10 1.39981300e-02 7.81665300e-03            nan
       50 -1    0    0    0    0 -2.7184783685e-03 -8.8734105040e-04 +3.0913131138e+00 3.0913184696e+00 4.9935713700e-03 0.0000e+00 0.0000e+00
       11 -1    0    0    0    0 -3.9663067891e-20 -1.2946458847e-20 +4.5102791078e-17 5.1100000000e-04 5.1099893000e-04 0.0000e+00 1.0000e+00
       50  1    1    2    0    0 -1.5632063572e-02 -3.9821683995e-04 +2.9136548163e+00 2.9137010561e+00 4.9935713700e-03 0.0000e+00 0.0000e+00
       11  1    1    2    0    0 +1.2913585204e-02 -4.8912421044e-04 +1.7765829746e-01 1.7812841352e-01 5.1099893000e-04 0.0000e+00 1.0000e+00
<vert_displacement>
126.54864242132754
</vert_displacement>
</event>
<event>
 4   1200 +8.5212000e+10 1.51593300e-02 7.81665300e-03            nan
       50 -1    0    0    0    0 -1.0912751507e-03 -3.0964093001e-03 +1.4747110365e+00 1.4747231454e+00 4.9935713700e-03 0.0000e+00 0.0000e+00
       11 -1    0    0    0    0 -7.7020753951e-21 -2.1854046495e-20 +1.0408315063e-17 5.1100000000e-04 5.1099893000e-04 0.0000e+00 1.0000e+00
       50  1    1    2    0    0 +9.3747283797e-03 -1.2542812694e-02 +1.2343581607e+00 1.2344675826e+00 4.9935713700e-03 0.0000e+00 0.0000e+00
       11  1    1    2    0    0 -1.0466003530e-02 +9.4464033939e-03 +2.4035287579e-01 2.4076656285e-01 5.1099893000e-04 0.0000e+00 1.0000e+00
<vert_displacement>
378.66629619967659
</vert_displacement>
</event>
<event>
 4   1200 +8.5212000e+10 1.95519400e-02 7.81665300e-03            nan
       50 -1    0    0    0    0 +1.1470195891e-02 +6.7924770050e-03 +4.8971897487e+00 4.8972104380e+00 4.9935713700e-03 0.0000e+00 0.0000e+00
       11 -1    0    0    0    0 +7.9635850278e-19 +4.7159149412e-19 +3.4000454163e-16 5.1100000000e-04 5.1099893000e-04 0.0000e+00 1.0000e+00
       50  1    1    2    0    0 +1.2485648999e-02 -1.2540866146e-02 +4.5180202664e+00 4.5180576831e+00 4.9935713700e-03 0.0000e+00 0.0000e+00
       11  1    1    2    0    0 -1.0154531082e-03 +1.9333343151e-02 +3.7916948235e-01 3.7966375488e-01 5.1099893000e-04 0.0000e+00 1.0000e+00
<vert_displacement>
16.780948969737352
</vert_displacement>
</event>
<event>
 4   1200 +8.5212000e+10 5.50460500e-03 7.81665300e-03            nan
       50 -1    0    0    0    0 -9.9269766190e-03 -3.4351731674e-02 +1.5629955612e+01 1.5629997311e+01 4.9935713700e-03 0.0000e+00 0.0000e+00
       11 -1    0    0    0    0 -3.8782074575e-19 -1.3420313865e-18 +6.1062106562e-16 5.1100000000e-04 5.1099893000e-04 0.0000e+00 1.0000e+00
       50  1    1    2    0    0 -8.2825422852e-03 -3.5974727062e-02 +1.5624701702e+01 1.5624746110e+01 4.9935713700e-03 0.0000e+00 0.0000e+00
       11  1    1    2    0    0 -1.6444343338e-03 +1.6229953874e-03 +5.2539101899e-03 5.7622018791e-03 5.1099893000e-04 0.0000e+00 1.0000e+00
<vert_displacement>
78.411754523465930
</vert_displacement>
</event>
<event>
 4   1200 +8.5212000e+10 4.30621700e-02 7.81665300e-03            nan
       50 -1    0    0    0    0 -1.2590564686e-02 -6.0594013686e-02 +3.3916805552e+01 3.3916862384e+01 4.9935713700e-03 0.0000e+00 0.0000e+00
       11 -1    0    0    0    0 +2.2821990123e-18 +1.0983430977e-17 -6.1478497641e-15 5.1100000000e-04 5.1099893000e-04 0.0000e+00 1.0000e+00
       50  1    1    2    0    0 +1.6599506331e-02 -8.9111792272e-02 +3.2020621173e+01 3.2020749862e+01 4.9935713700e-03 0.0000e+00 0.0000e+00
       11  1    1    2    0    0 -2.9190071016e-02 +2.8517778586e-02 +1.8961843786e+00 1.8966235216e+00 5.1099893000e-04 0.0000e+00 1.0000e+00
<vert_displacement>
32.567011392483842
</vert_displacement>
</event>
<event>
 4   1200 +8.5212000e+10 1.86744000e-02 7.81665300e-03            nan
       50 -1    0    0    0    0 +1.0608729534e-02 +2.6276839057e-03 +4.1047347839e+00 4.1047523715e+00 4.9935713700e-03 0.0000e+00 0.0000e+00
       11 -1    0    0    0    0 -1.2015498294e-18 -2.9761274794e-19 -4.6490424360e-16 5.1100000000e-04 5.1099893000e-04 0.0000e+00 1.0000e+00
       50  1    1    2    0    0 +1.2136169902e-02 +2.0236612324e-02 +3.7584729959e+00 3.7585503860e+00 4.9935713700e-03 0.0000e+00 0.0000e+00
       11  1    1    2    0    0 -1.5274403680e-03 -1.7608928418e-02 +3.4626178798e-01 3.4671298558e-01 5.1099893000e-04 0.0000e+00 1.0000e+00
<vert_displacement>
383.50032609897164
</vert_displacement>
</event>
<event>
 4   1200 +8.5212000e+10 4.45556300e-02 7.81665300e-03            nan
       50 -1    0    0    0    0 +5.8693035957e-03 -3.3125043162e-02 +1.4498788922e+01 1.4498828809e+01 4.9935713700e-03 0.0000e+00 0.0000e+00
       11 -1    0    0    0    0 -4.5785876199e-19 +2.5840529470e-18 -1.1310366618e-15 5.1100000000e-04 5.1099893000e-04 0.0000e+00 1.0000e+00
       50  1    1    2    0    0 +2.0826681835e-02 +1.3404400233e-02 +1.2222860215e+01 1.2222886329e+01 4.9935713700e-03 0.0000e+00 0.0000e+00
       11  1    1    2    0    0 -1.4957378239e-02 -4.6529443395e-02 +2.2759287062e+00 2.2764534806e+00 5.1099893000e-04 0.0000e+00 1.0000e+00
<vert_displacement>
178.19305046552262
</vert_displacement>
</event>
<event>
 4   1200 +8.5212000e+10 1.19850500e-02 7.81665300e-03            nan
       50 -1    0    0    0    0 -9.5393366637e-03 +1.3735414664e-02 +5.9031404026e+00 5.9031662020e+00 4.9935713700e-03 0.0000e+00 0.0000e+00
       11 -1    0    0    0    0 -6.7278270447e-20 +9.6872033667e-20 +4.1633196363e-17 5.1100000000e-04 5.1099893000e-04 0.0000e+00 1.0000e+00
       50  1    1    2    0    0 -1.8359041175e-02 +1.9583433884e-02 +5.7845610518e+00 5.7846254903e+00 4.9935713700e-03 0.0000e+00 0.0000e+00
       11  1    1    2    0    0 +8.8197045118e-03 -5.8480192200e-03 +1.1857935082e-01 1.1905171178e-01 5.1099893000e-04 0.0000e+00 1.0000e+00
<vert_displacement>
178.26035623032524
</vert_displacement>
</event>
<event>
 4   1200 +8.5212000e+10 2.40710700e-02 7.81665300e-03            nan
       50 -1    0    0    0    0 +3.6717382508e-04 -1.3852157584e-02 +5.4482628935e+00 5.4482828037e+00 4.9935713700e-03 0.0000e+00 0.0000e+00
       11 -1    0    0    0    0 -6.8274001415e-20 +2.5757343305e-18 -1.0130752333e-15 5.1100000000e-04 5.1099893000e-04 0.0000e+00 1.0000e+00
       50  1    1    2    0    0 -1.9720895759e-02 +5.5947692704e-05 +4.8367549255e+00 4.8367977073e+00 4.9935713700e-03 0.0000e+00 0.0000e+00
       11  1    1    2    0    0 +2.0088069584e-02 -1.3908105277e-02 +6.1150796801e-01 6.1199609638e-01 5.1099893000e-04 0.0000e+00 1.0000e+00
<vert_displacement>
440.63874547525319
</vert_displacement>
</event>
<event>
 4   1200 +8.5212000e+10 1.28445700e-02 7.81665300e-03            nan
       50 -1    0    0    0    0 -1.7171736262e-02 +2.0490766861e-02 +1.7394873495e+01 1.7394894756e+01 4.9935713700e-03 0.0000e+00 0.0000e+00
       11 -1    0    0    0    0 +1.3288758198e-18 -1.5857269291e-18 -1.3461438275e-15 5.1100000000e-04 5.1099893000e-04 0.0000e+00 1.0000e+00
       50  1    1    2    0    0 -2.8204647922e-02 +2.4238850897e-02 +1.7256722914e+01 1.7256763708e+01 4.9935713700e-03 0.0000e+00 0.0000e+00
       11  1    1    2    0    0 +1.1032911661e-02 -3.7480840360e-03 +1.3815058120e-01 1.3864204802e-01 5.1099893000e-04 0.0000e+00 1.0000e+00
<vert_displacement>
451.48095167326494
</vert_displacement>
</event>
<event>
 4   1200 +8.5212000e+10 1.10142900e-02 7.81665300e-03            nan
       50 -1    0    0    0    0 +3.5966202965e-02 -4.0686648094e-03 +1.1404020908e+01 1.1404079443e+01 4.9935713700e-03 0.0000e+00 0.0000e+00
       11 -1    0    0    0    0 -4.0485207912e-18 +4.5798757488e-19 -1.2836889064e-15 5.1100000000e-04 5.1099893000e-04 0.0000e+00 1.0000e+00
       50  1    1    2    0    0 +4.5423151284e-02 -5.1215459967e-03 +1.1308886966e+01 1.1308980451e+01 4.9935713700e-03 0.0000e+00 0.0000e+00
       11  1    1    2    0    0 -9.4569483191e-03 +1.0528811873e-03 +9.5133942322e-02 9.5609991799e-02 5.1099893000e-04 0.0000e+00 1.0000e+00
<vert_displacement>
44.503294572222586
</vert_displacement>
</event>
<event>
 4   1200 +8.5212000e+10 1.56867900e-02 7.81665300e-03            nan
       50 -1    0    0    0    0 +7.3795029909e-03 +2.2721706117e-03 +4.7891683056e+00 4.7891771334e+00 4.9935713700e-03 0.0000e+00 0.0000e+00
       11 -1    0    0    0    0 -3.7421805780e-19 -1.1522283741e-19 -2.4286097099e-16 5.1100000000e-04 5.1099893000e-04 0.0000e+00 1.0000e+00
       50  1    1    2    0    0 +2.1433792447e-02 -1.5304272044e-03 +4.5619091772e+00 4.5619625192e+00 4.9935713700e-03 0.0000e+00 0.0000e+00
       11  1    1    2    0    0 -1.4054289456e-02 +3.8025978160e-03 +2.2725912842e-01 2.2772561422e-01 5.1099893000e-04 0.0000e+00 1.0000e+00
<vert_displacement>
202.76624985654388
</vert_displacement>
</event>
<event>
 4   1200 +8.5212000e+10 2.09687600e-02 7.81665300e-03            nan
       50 -1    0    0    0    0 +5.2634331808e-02 -2.6521480792e-02 +2.3870726701e+01 2.3870799986e+01 4.9935713700e-03 0.0000e+00 0.0000e+00
       11 -1    0    0    0    0 +5.9364132037e-18 -2.9912504509e-18 +2.6922826282e-15 5.1100000000e-04 5.1099893000e-04 0.0000e+00 1.0000e+00
       50  1    1    2    0    0 +3.7233179941e-02 -1.1752662252e-02 +2.3457789885e+01 2.3457822910e+01 4.9935713700e-03 0.0000e+00 0.0000e+00
       11  1    1    2    0    0 +1.5401151867e-02 -1.4768818539e-02 +4.1293681594e-01 4.1348807548e-01 5.1099893000e-04 0.0000e+00 1.0000e+00
<vert_displacement>
357.78366308723895
</vert_displacement>
</event>
<event>
 4   1200 +8.5212000e+10 1.99993600e-02 7.81665300e-03            nan
       50 -1    0    0    0    0 +2.0766460390e-02 -5.5228792654e-03 +1.3822371216e+01 1.3822388821e+01 4.9935713700e-03 0.0000e+00 0.0000e+00
       11 -1    0    0    0    0 -8.3398767996e-20 +2.2180059475e-20 -5.5511084152e-17 5.1100000000e-04 5.1099893000e-04 0.0000e+00 1.0000e+00
       50  1    1    2    0    0 +9.3693308549e-03 +1.0682253250e-02 +1.3445098580e+01 1.3445107015e+01 4.9935713700e-03 0.0000e+00 0.0000e+00
       11  1    1    2    0    0 +1.1397129535e-02 -1.6205132515e-02 +3.7727263640e-01 3.7779280589e-01 5.1099893000e-04 0.0000e+00 1.0000e+00
<vert_displacement>
39.618420791908214
</vert_displacement>
</event>
<event>
 4   1200 +8.5212000e+10 1.92264400e-02 7.81665300e-03            nan
       50 -1    0    0    0    0 +1.8724705406e-02 +1.7923975320e-02 +7.3327108993e+00 7.3327584136e+00 4.9935713700e-03 0.0000e+00 0.0000e+00
       11 -1    0    0    0    0 -2.2503065569e-18 -2.1540760357e-18 -8.8123401994e-16 5.1100000000e-04 5.1099893000e-04 0.0000e+00 1.0000e+00
       50  1    1    2    0    0 +3.1613506581e-02 +2.9484740902e-02 +6.9781278623e+00 6.9782635492e+00 4.9935713700e-03 0.0000e+00 0.0000e+00
       11  1    1    2    0    0 -1.2888801175e-02 -1.1560765582e-02 +3.5458303698e-01 3.5500586436e-01 5.1099893000e-04 0.0000e+00 1.0000e+00
<vert_displacement>
420.30740125672099
</vert_displacement>
</event>
<event>
 4   1200 +8.5212000e+10 1.71387900e-02 7.81665300e-03            nan
       50 -1    0    0    0    0 +2.3681746385e-03 -9.8087915777e-03 +9.0089169818e+00 9.0089240168e+00 4.9935713700e-03 0.0000e+00 0.0000e+00
       11 -1    0    0    0    0 +1.7510653274e-19 -7.2527737425e-19 +6.6613339692e-16 5.1100000000e-04 5.1099893000e-04 0.0000e+00 1.0000e+00
       50  1    1    2    0    0 +4.2008531113e-03 -2.5797749940e-02 +8.7376808088e+00 8.7377213290e+00 4.9935713700e-03 0.0000e+00 0.0000e+00
       11  1    1    2    0    0 -1.8326784728e-03 +1.5988958363e-02 +2.7123617293e-01 2.7171368778e-01 5.1099893000e-04 0.0000e+00 1.0000e+00
<vert_displacement>
118.26981572327551
</vert_displacement>
</event>
<event>
 4   1200 +8.5212000e+10 1.61791900e-02 7.81665300e-03            nan
       50 -1    0    0    0    0 +1.3394065124e-02 -4.8955960706e-03 +5.1455108666e+00 5.1455330513e+00 4.9935713700e-03 0.0000e+00 0.0000e+00
       11 -1    0    0    0    0 -5.5993057083e-19 +2.0465735212e-19 -2.1510488490e-16 5.1100000000e-04 5.1099893000e-04 0.0000e+00 1.0000e+00
       50  1    1    2    0    0 -1.5556108148e-03 +9.8140409378e-04 +4.9022394805e+00 4.9022423689e+00 4.9935713700e-03 0.0000e+00 0.0000e+00
       11  1    1    2    0    0 +1.4949675938e-02 -5.8770001643e-03 +2.4327138605e-01 2.4380168238e-01 5.1099893000e-04 0.0000e+00 1.0000e+00
<vert_displacement>
120.50396290476159
</vert_displacement>
</event>
<event>
 4   1200 +8.5212000e+10 8.21462200e-03 7.81665300e-03            nan
       50 -1    0    0    0    0 -1.6547611250e-02 -2.1909117787e-02 +1.7675586923e+01 1.7675608953e+01 4.9935713700e-03 0.0000e+00 0.0000e+00
       11 -1    0    0    0    0 -1.2212625465e-18 -1.6169575521e-18 +1.3045104802e-15 5.1100000000e-04 5.1099893000e-04 0.0000e+00 1.0000e+00
       50  1    1    2    0    0 -1.0337207383e-02 -2.3968990182e-02 +1.7633861846e+01 1.7633881873e+01 4.9935713700e-03 0.0000e+00 0.0000e+00
       11  1    1    2    0    0 -6.2104038670e-03 +2.0598723953e-03 +4.1725077066e-02 4.2238079579e-02 5.1099893000e-04 0.0000e+00 1.0000e+00
<vert_displacement>
261.93778524958861
</vert_displacement>
</event>
<event>
 4   1200 +8.5212000e+10 2.47531600e-02 7.81665300e-03            nan
       50 -1    0    0    0    0 -1.8932458754e-02 -1.3927740707e-02 +7.3983938662e+00 7.3984328850e+00 4.9935713700e-03 0.0000e+00 0.0000e+00
       11 -1    0    0    0    0 +1.2962252799e-18 +9.5357342805e-19 -5.0653669891e-16 5.1100000000e-04 5.1099893000e-04 0.0000e+00 1.0000e+00
       50  1    1    2    0    0 -3.2772882954e-02 +5.9400922592e-03 +6.7696087787e+00 6.7696925557e+00 4.9935713700e-03 0.0000e+00 0.0000e+00
       11  1    1    2    0    0 +1.3840424200e-02 -1.9867832966e-02 +6.2878508751e-01 6.2925132938e-01 5.1099893000e-04 0.0000e+00 1.0000e+00
<vert_displacement>
193.55856697406557
</vert_displacement>
</event>
<event>
 4   1200 +8.5212000e+10 9.69931100e-03 7.81665300e-03            nan
       50 -1    0    0    0    0 +4.6545415848e-02 +9.4182666630e-03 +1.7505887787e+01 1.7505952911e+01 4.9935713700e-03 0.0000e+00 0.0000e+00
       11 -1    0    0    0    0 -2.9518984045e-19 -5.9730407021e-20 -1.1102189396e-16 5.1100000000e-04 5.1099893000e-04 0.0000e+00 1.0000e+00
       50  1    1    2    0    0 +4.3738290456e-02 +1.7271096061e-02 +1.7437972403e+01 1.7438036523e+01 4.9935713700e-03 0.0000e+00 0.0000e+00
       11  1    1    2    0    0 +2.8071253919e-03 -7.8528293975e-03 +6.7915384026e-02 6.8427387717e-02 5.1099893000e-04 0.0000e+00 1.0000e+00
<vert_displacement>
2.8890081809545300
</vert_displacement>
</event>
<event>
 4   1200 +8.5212000e+10 1.30893600e-02 7.81665300e-03            nan
       50 -1    0    0    0    0 +2.4722516168e-02 -6.9274566675e-03 +7.3279266481e+00 7.3279733275e+00 4.9935713700e-03 0.0000e+00 0.0000e+00
       11 -1    0    0    0    0 +3.0432840508e-19 -8.5275375070e-20 +9.0205067083e-17 5.1100000000e-04 5.1099893000e-04 0.0000e+00 1.0000e+00
       50  1    1    2    0    0 +1.3492147567e-02 -1.2119552543e-03 +7.1817892003e+00 7.1818037122e+00 4.9935713700e-03 0.0000e+00 0.0000e+00
       11  1    1    2    0    0 +1.1230368601e-02 -5.7155014132e-03 +1.4613744783e-01 1.4668061533e-01 5.1099893000e-04 0.0000e+00 1.0000e+00
<vert_displacement>
296.06336280185326
</vert_displacement>
</event>
<event>
 4   1200 +8.5212000e+10 3.61504700e-02 7.81665300e-03            nan
       50 -1    0    0    0    0 +1.2237288111e-01 +9.2229065640e-02 +3.9830297970e+01 3.9830593049e+01 4.9935713700e-03 0.0000e+00 0.0000e+00
       11 -1    0    0    0    0 -8.6979884358e-18 -6.5554340072e-18 -2.8310477615e-15 5.1100000000e-04 5.1099893000e-04 0.0000e+00 1.0000e+00
       50  1    1    2    0    0 +1.5132102893e-01 +7.5176110245e-02 +3.8533665429e+01 3.8534036200e+01 4.9935713700e-03 0.0000e+00 0.0000e+00
       11  1    1    2    0    0 -2.8948147822e-02 +1.7052955395e-02 +1.2966325405e+00 1.2970678489e+00 5.1099893000e-04 0.0000e+00 1.0000e+00
<vert_displacement>
239.50794263036963
</vert_displacement>
</event>
<event>
 4   1200 +8.5212000e+10 1.99934600e-02 7.81665300e-03            nan
       50 -1    0    0    0    0 +5.9631600344e-04 +1.1720326199e-02 +9.8541638383e+00 9.8541720915e+00 4.9935713700e-03 0.0000e+00 0.0000e+00
       11 -1    0    0    0    0 +3.0232852250e-20 +5.9421328333e-19 +4.9960000679e-16 5.1100000000e-04 5.1099893000e-04 0.0000e+00 1.0000e+00
       50  1    1    2    0    0 +1.6786557548e-02 +2.1846214362e-02 +9.4725862426e+00 9.4726276241e+00 4.9935713700e-03 0.0000e+00 0.0000e+00
       11  1    1    2    0    0 -1.6190241545e-02 -1.0125888163e-02 +3.8157759572e-01 3.8205546745e-01 5.1099893000e-04 0.0000e+00 1.0000e+00
<vert_displacement>
34.004999224607822
</vert_displacement>
</event>
<event>
 4   1200 +8.5212000e+10 9.71714400e-03 7.81665300e-03            nan
       50 -1    0    0    0    0 +8.5415837131e-03 +2.8953533686e-04 +3.8357581018e+00 3.8357708735e+00 4.9935713700e-03 0.0000e+00 0.0000e+00
       11 -1    0    0    0    0 +2.9358236229e-19 +9.9516051142e-21 +1.3183865692e-16 5.1100000000e-04 5.1099893000e-04 0.0000e+00 1.0000e+00
       50  1    1    2    0    0 +9.2727227033e-03 +8.5730496856e-03 +3.7664968314e+00 3.7665213124e+00 4.9935713700e-03 0.0000e+00 0.0000e+00
       11  1    1    2    0    0 -7.3113899023e-04 -8.2835143487e-03 +6.9261270442e-02 6.9760561045e-02 5.1099893000e-04 0.0000e+00 1.0000e+00
<vert_displacement>
175.05553604143907
</vert_displacement>
</event>
<event>
 4   1200 +8.5212000e+10 9.18285400e-03 7.81665300e-03            nan
       50 -1    0    0    0    0 +3.8556567515e-02 -1.9459585922e-02 +1.1393379557e+01 1.1393462509e+01 4.9935713700e-03 0.0000e+00 0.0000e+00
       11 -1    0    0    0    0 +1.9724781970e-18 -9.9551416082e-19 +5.8286290024e-16 5.1100000000e-04 5.1099893000e-04 0.0000e+00 1.0000e+00
       50  1    1    2    0    0 +3.3929390887e-02 -2.5666049842e-02 +1.1334970855e+01 1.1335051794e+01 4.9935713700e-03 0.0000e+00 0.0000e+00
       11  1    1    2    0    0 +4.6271766285e-03 +6.2064639200e-03 +5.8408701207e-02 5.8921714627e-02 5.1099893000e-04 0.0000e+00 1.0000e+00
<vert_displacement>
484.19856217398524
</vert_displacement>
</event>
<event>
 4   1200 +8.5212000e+10 2.30458200e-02 7.81665300e-03            nan
       50 -1    0    0    0    0 -3.4407310890e-02 -8.5785744364e-02 +6.5063661995e+01 6.5063727838e+01 4.9935713700e-03 0.0000e+00 0.0000e+00
       11 -1    0    0    0    0 +6.5609926590e-18 +1.6358140885e-17 -1.2406729781e-14 5.1100000000e-04 5.1099893000e-04 0.0000e+00 1.0000e+00
       50  1    1    2    0    0 -1.6205534469e-02 -7.1547995930e-02 +6.4564577745e+01 6.4564619616e+01 4.9935713700e-03 0.0000e+00 0.0000e+00
       11  1    1    2    0    0 -1.8201776421e-02 -1.4237748434e-02 +4.9908424945e-01 4.9961922232e-01 5.1099893000e-04 0.0000e+00 1.0000e+00
<vert_displacement>
250.24022080066561
</vert_displacement>
</event>
<event>
 4   1200 +8.5212000e+10 1.50087100e-02 7.81665300e-03            nan
       50 -1    0    0    0    0 -1.0625962391e-01 -6.9540288693e-02 +4.3866631977e+01 4.3866816079e+01 4.9935713700e-03 0.0000e+00 0.0000e+00
       11 -1    0    0    0    0 -3.0591008777e-18 -2.0019905054e-18 +1.2628733986e-15 5.1100000000e-04 5.1099893000e-04 0.0000e+00 1.0000e+00
       50  1    1    2    0    0 -9.1997752737e-02 -6.6018749033e-02 +4.3669771356e+01 4.3669918448e+01 4.9935713700e-03 0.0000e+00 0.0000e+00
       11  1    1    2    0    0 -1.4261871173e-02 -3.5215396600e-03 +1.9686062120e-01 1.9740863079e-01 5.1099893000e-04 0.0000e+00 1.0000e+00
<vert_displacement>
359.64001915518270
</vert_displacement>
</event>
<event>
 4   1200 +8.5212000e+10 7.16066900e-03 7.81665300e-03            nan
       50 -1    0    0    0    0 +5.0821237214e-02 +2.2657608053e-02 +1.6748761018e+01 1.6748854192e+01 4.9935713700e-03 0.0000e+00 0.0000e+00
       11 -1    0    0    0    0 +2.9476670978e-18 +1.3141570224e-18 +9.7143978558e-16 5.1100000000e-04 5.1099893000e-04 0.0000e+00 1.0000e+00
       50  1    1    2    0    0 +5.4710200944e-02 +1.9366926330e-02 +1.6722940469e+01 1.6723041923e+01 4.9935713700e-03 0.0000e+00 0.0000e+00
       11  1    1    2    0    0 -3.8889637302e-03 +3.2906817225e-03 +2.5820548563e-02 2.6323268662e-02 5.1099893000e-04 0.0000e+00 1.0000e+00
<vert_displacement>
451.99300934085278
</vert_displacement>
</event>
<event>
 4   1200 +8.5212000e+10 1.00142400e-02 7.81665300e-03            nan
       50 -1    0    0    0    0 -7.3763255439e-02 -2.4937766020e-02 +4.6658711498e+01 4.6658776736e+01 4.9935713700e-03 0.0000e+00 0.0000e+00
       11 -1    0    0    0    0 -3.0495922299e-18 -1.0310013710e-18 +1.9290098192e-15 5.1100000000e-04 5.1099893000e-04 0.0000e+00 1.0000e+00
       50  1    1    2    0    0 -8.2214477581e-02 -2.6290822652e-02 +4.6584852229e+01 4.6584932463e+01 4.9935713700e-03 0.0000e+00 0.0000e+00
       11  1    1    2    0    0 +8.4512221421e-03 +1.3530566326e-03 +7.3859268347e-02 7.4355272568e-02 5.1099893000e-04 0.0000e+00 1.0000e+00
<vert_displacement>
318.25896710597186
</vert_displacement>
</event>
<event>
 4   1200 +8.5212000e+10 2.71198300e-02 7.81665300e-03            nan
       50 -1    0    0    0    0 +9.0129503000e-02 -1.3911571375e-02 +2.6105742403e+01 2.6105902172e+01 4.9935713700e-03 0.0000e+00 0.0000e+00
       11 -1    0    0    0    0 -1.0828217234e-17 +1.6713452521e-18 -3.1363609072e-15 5.1100000000e-04 5.1099893000e-04 0.0000e+00 1.0000e+00
       50  1    1    2    0    0 +8.9201646486e-02 -4.0142218945e-02 +2.5390866837e+01 2.5391055748e+01 4.9935713700e-03 0.0000e+00 0.0000e+00
       11  1    1    2    0    0 +9.2785651455e-04 +2.6230647569e-02 +7.1487556642e-01 7.1535742421e-01 5.1099893000e-04 0.0000e+00 1.0000e+00
<vert_displacement>
174.35886556723239
</vert_displacement>
</event>
<event>
 4   1200 +8.5212000e+10 7.40667100e-03 7.81665300e-03            nan
       50 -1    0    0    0    0 +1.1327386364e-01 +4.0409857508e-02 +3.9104096895e+01 3.9104282154e+01 4.9935713700e-03 0.0000e+00 0.0000e+00
       11 -1    0    0    0    0 +1.8089982899e-18 +6.4535066412e-19 +6.2449749782e-16 5.1100000000e-04 5.1099893000e-04 0.0000e+00 1.0000e+00
       50  1    1    2    0    0 +1.0943331336e-01 +3.6402428432e-02 +3.9074810784e+01 3.9074981299e+01 4.9935713700e-03 0.0000e+00 0.0000e+00
       11  1    1    2    0    0 +3.8405502814e-03 +4.0074290760e-03 +2.9286110903e-02 2.9811855460e-02 5.1099893000e-04 0.0000e+00 1.0000e+00
<vert_displacement>
142.76662934124732
</vert_displacement>
</event>
<event>
 4   1200 +8.5212000e+10 6.47678600e-03 7.81665300e-03            nan
       50 -1    0    0    0    0 +2.0245680908e-02 -1.1543027832e-02 +5.9460150411e+00 5.9460628094e+00 4.9935713700e-03 0.0000e+00 0.0000e+00
       11 -1    0    0    0    0 -7.3241122103e-19 +4.1758255240e-19 -2.1510405880e-16 5.1100000000e-04 5.1099893000e-04 0.0000e+00 1.0000e+00
       50  1    1    2    0    0 +1.6737218851e-02 -1.3768779224e-02 +5.9293272594e+00 5.9293689714e+00 4.9935713700e-03 0.0000e+00 0.0000e+00
       11  1    1    2    0    0 +3.5084620566e-03 +2.2257513927e-03 +1.6687781708e-02 1.7204838084e-02 5.1099893000e-04 0.0000e+00 1.0000e+00
<vert_displacement>
57.032352655565504
</vert_displacement>
</event>
<event>
 4   1200 +8.5212000e+10 6.71989000e-03 7.81665300e-03            nan
       50 -1    0    0    0    0 +3.6121100192e-02 -6.7316219819e-03 +2.2991083552e+01 2.2991113455e+01 4.9935713700e-03 0.0000e+00 0.0000e+00
       11 -1    0    0    0    0 -4.2298303417e-18 +7.8828216075e-19 -2.6922873966e-15 5.1100000000e-04 5.1099893000e-04 0.0000e+00 1.0000e+00
       50  1    1    2    0    0 +3.4174287070e-02 -2.6575022534e-03 +2.2971284388e+01 2.2971310505e+01 4.9935713700e-03 0.0000e+00 0.0000e+00
       11  1    1    2    0    0 +1.9468131215e-03 -4.0741197284e-03 +1.9799163638e-02 2.0313949236e-02 5.1099893000e-04 0.0000e+00 1.0000e+00
<vert_displacement>
32.948536033652900
</vert_displacement>
</event>
<event>
 4   1200 +8.5212000e+10 1.13285500e-02 7.81665300e-03            nan
       50 -1    0    0    0    0 -2.8614718227e-02 +6.7270131074e-03 +1.4380164555e+01 1.4380195465e+01 4.9935713700e-03 0.0000e+00 0.0000e+00
       11 -1    0    0    0    0 -9.3890979648e-19 +2.2072761498e-19 +4.7184379968e-16 5.1100000000e-04 5.1099893000e-04 0.0000e+00 1.0000e+00
       50  1    1    2    0    0 -1.8245658606e-02 +6.4638610673e-03 +1.4278283745e+01 1.4278297739e+01 4.9935713700e-03 0.0000e+00 0.0000e+00
       11  1    1    2    0    0 -1.0369059621e-02 +2.6315204015e-04 +1.0188080957e-01 1.0240872582e-01 5.1099893000e-04 0.0000e+00 1.0000e+00
<vert_displacement>
76.411496300093376
</vert_displacement>
</event>
<event>
 4   1200 +8.5212000e+10 3.49735600e-02 7.81665300e-03            nan
       50 -1    0    0    0    0 +2.1660776496e-03 +3.3646515778e-03 +1.0170824871e+01 1.0170826884e+01 4.9935713700e-03 0.0000e+00 0.0000e+00
       11 -1    0    0    0    0 +1.3152189721e-19 +2.0429801261e-19 +6.1756150965e-16 5.1100000000e-04 5.1099893000e-04 0.0000e+00 1.0000e+00
       50  1    1    2    0    0 +3.5585611002e-02 +1.0791651955e-02 +8.8179603977e+00 8.8180402192e+00 4.9935713700e-03 0.0000e+00 0.0000e+00
       11  1    1    2    0    0 -3.3419533353e-02 -7.4270003771e-03 +1.3528644737e+00 1.3532976653e+00 5.1099893000e-04 0.0000e+00 1.0000e+00
<vert_displacement>
200.09513257889591
</vert_displacement>
</event>
<event>
 4   1200 +8.5212000e+10 2.09904000e-02 7.81665300e-03            nan
       50 -1    0    0    0    0 +3.2960280912e-02 -1.9301380297e-02 +9.5775932566e+00 9.5776707215e+00 4.9935713700e-03 0.0000e+00 0.0000e+00
       11 -1    0    0    0    0 -5.2534425756e-19 +3.0763904376e-19 -1.5265445195e-16 5.1100000000e-04 5.1099893000e-04 0.0000e+00 1.0000e+00
       50  1    1    2    0    0 +2.4577377403e-02 +7.3462489172e-04 +9.1519548621e+00 9.1519892548e+00 4.9935713700e-03 0.0000e+00 0.0000e+00
       11  1    1    2    0    0 +8.3829035089e-03 -2.0036005188e-02 +4.2563839455e-01 4.2619246663e-01 5.1099893000e-04 0.0000e+00 1.0000e+00
<vert_displacement>
222.04694893229191
</vert_displacement>
</event>
<event>
 4   1200 +8.5212000e+10 5.37870800e-03 7.81665300e-03            nan
       50 -1    0    0    0    0 -1.1786082210e-03 -2.1013401591e-02 +1.0116152498e+01 1.0116175624e+01 4.9935713700e-03 0.0000e+00 0.0000e+00
       11 -1    0    0    0    0 +5.6590228265e-20 +1.0089469694e-18 -4.8572152208e-16 5.1100000000e-04 5.1099893000e-04 0.0000e+00 1.0000e+00
       50  1    1    2    0    0 -1.6481517559e-03 -2.2947913947e-02 +1.0112237950e+01 1.0112265355e+01 4.9935713700e-03 0.0000e+00 0.0000e+00
       11  1    1    2    0    0 +4.6954353488e-04 +1.9345123559e-03 +3.9145485007e-03 4.4212689419e-03 5.1099893000e-04 0.0000e+00 1.0000e+00
<vert_displacement>
249.87622039090655
</vert_displacement>
</event>
<event>
 4   1200 +8.5212000e+10 1.13378200e-02 7.81665300e-03            nan
       50 -1    0    0    0    0 +6.8320903990e-03 -2.7840280378e-03 +2.6738121357e+01 2.6738122841e+01 4.9935713700e-03 0.0000e+00 0.0000e+00
       11 -1    0    0    0    0 +6.3828618601e-20 -2.6009706169e-20 +2.4980017103e-16 5.1100000000e-04 5.1099893000e-04 0.0000e+00 1.0000e+00
       50  1    1    2    0    0 +1.5389239239e-02 -8.2451668570e-03 +2.6636348910e+01 2.6636355100e+01 4.9935713700e-03 0.0000e+00 0.0000e+00
       11  1    1    2    0    0 -8.5571488403e-03 +5.4611388192e-03 +1.0177244646e-01 1.0227874076e-01 5.1099893000e-04 0.0000e+00 1.0000e+00
<vert_displacement>
417.53251949851705
</vert_displacement>
</event>
<event>
 4   1200 +8.5212000e+10 1.80002100e-02 7.81665300e-03            nan
       50 -1    0    0    0    0 +7.5605108123e-03 -4.5278182274e-03 +3.5288496014e+00 3.5288641384e+00 4.9935713700e-03 0.0000e+00 0.0000e+00
       11 -1    0    0    0    0 -5.6492459001e-19 +3.3832050760e-19 -2.6367714613e-16 5.1100000000e-04 5.1099893000e-04 0.0000e+00 1.0000e+00
       50  1    1    2    0    0 -1.3139675970e-03 +1.1120375636e-02 +3.2065698592e+00 3.2065932993e+00 4.9935713700e-03 0.0000e+00 0.0000e+00
       11  1    1    2    0    0 +8.8744784093e-03 -1.5648193864e-02 +3.2227974216e-01 3.2278183912e-01 5.1099893000e-04 0.0000e+00 1.0000e+00
<vert_displacement>
382.48860896770577
</vert_displacement>
</event>
<event>
 4   1200 +8.5212000e+10 8.19188400e-03 7.81665300e-03            nan
       50 -1    0    0    0    0 +1.0313633123e-02 -5.5211137650e-03 +7.5731835972e+00 7.5731942789e+00 4.9935713700e-03 0.0000e+00 0.0000e+00
       11 -1    0    0    0    0 +2.5514477919e-19 -1.3658459010e-19 +1.8734991188e-16 5.1100000000e-04 5.1099893000e-04 0.0000e+00 1.0000e+00
       50  1    1    2    0    0 +4.4378493039e-03 -2.6086494634e-03 +7.5316993899e+00 7.5317028045e+00 4.9935713700e-03 0.0000e+00 0.0000e+00
       11  1    1    2    0    0 +5.8757838186e-03 -2.9124643016e-03 +4.1484207277e-02 4.2002474416e-02 5.1099893000e-04 0.0000e+00 1.0000e+00
<vert_displacement>
351.66111821145216
</vert_displacement>
</event>
<event>
 4   1200 +8.5212000e+10 9.09272500e-03 7.81665300e-03            nan
       50 -1    0    0    0    0 +8.0889619595e-03 +2.5213372996e-02 +1.5082427787e+01 1.5082451858e+01 4.9935713700e-03 0.0000e+00 0.0000e+00
       11 -1    0    0    0    0 -7.4428816264e-21 -2.3199534323e-20 -1.3877766421e-17 5.1100000000e-04 5.1099893000e-04 0.0000e+00 1.0000e+00
       50  1    1    2    0    0 +1.5600254293e-02 +2.4188769448e-02 +1.5025710939e+01 1.5025739337e+01 4.9935713700e-03 0.0000e+00 0.0000e+00
       11  1    1    2    0    0 -7.5112923334e-03 +1.0246035477e-03 +5.6716847816e-02 5.7223520261e-02 5.1099893000e-04 0.0000e+00 1.0000e+00
<vert_displacement>
193.56037703863490
</vert_displacement>
</event>
<event>
 4   1200 +8.5212000e+10 1.29705800e-02 7.81665300e-03            nan
       50 -1    0    0    0    0 +8.0237233278e-03 +2.1690813901e-03 +2.6005278969e+00 2.6005459741e+00 4.9935713700e-03 0.0000e+00 0.0000e+00
       11 -1    0    0    0    0 +1.1882161203e-18 +3.2121464919e-19 +3.8510664464e-16 5.1100000000e-04 5.1099893000e-04 0.0000e+00 1.0000e+00
       50  1    1    2    0    0 +1.9480348436e-02 +8.9991266643e-04 +2.4516517486e+00 2.4517343914e+00 4.9935713700e-03 0.0000e+00 0.0000e+00
       11  1    1    2    0    0 -1.1456625109e-02 +1.2691687237e-03 +1.4887614829e-01 1.4932258268e-01 5.1099893000e-04 0.0000e+00 1.0000e+00
<vert_displacement>
132.68192827533932
</vert_displacement>
</event>
<event>
 4   1200 +8.5212000e+10 1.57470400e-02 7.81665300e-03            nan
       50 -1    0    0    0    0 +7.9192512890e-03 +1.3233980996e-02 +6.9656044450e+00 6.9656233083e+00 4.9935713700e-03 0.0000e+00 0.0000e+00
       11 -1    0    0    0    0 +4.2599868436e-19 +7.1189286558e-19 +3.7469935239e-16 5.1100000000e-04 5.1099893000e-04 0.0000e+00 1.0000e+00
       50  1    1    2    0    0 -7.2548187050e-03 +1.2099718806e-02 +6.7400443809e+00 6.7400609958e+00 4.9935713700e-03 0.0000e+00 0.0000e+00
       11  1    1    2    0    0 +1.5174069994e-02 +1.1342621902e-03 +2.2556006417e-01 2.2607331249e-01 5.1099893000e-04 0.0000e+00 1.0000e+00
<vert_displacement>
376.48758185448776
</vert_displacement>
</event>
<event>
 4   1200 +8.5212000e+10 3.26919500e-02 7.81665300e-03            nan
       50 -1    0    0    0    0 -8.8644094729e-03 +1.9964748263e-03 +5.0602841934e+00 5.0602948153e+00 4.9935713700e-03 0.0000e+00 0.0000e+00
       11 -1    0    0    0    0 +1.9448424741e-19 -4.3802455794e-20 -1.1102212348e-16 5.1100000000e-04 5.1099893000e-04 0.0000e+00 1.0000e+00
       50  1    1    2    0    0 +2.8599971756e-02 +9.1920322830e-03 +1.4482974688e+00 1.4486175981e+00 4.9935713700e-03 0.0000e+00 0.0000e+00
       11  1    1    2    0    0 -3.7464381229e-02 -7.1955574567e-03 +3.6119867246e+00 3.6121882171e+00 5.1099893000e-04 0.0000e+00 1.0000e+00
<vert_displacement>
438.43265524692629
</vert_displacement>
</event>
<event>
 4   1200 +8.5212000e+10 1.42505800e-02 7.81665300e-03            nan
       50 -1    0    0    0    0 +8.6438663024e-02 -1.6686597434e-02 +2.9541764114e+01 2.9541895707e+01 4.9935713700e-03 0.0000e+00 0.0000e+00
       11 -1    0    0    0    0 +4.1824152940e-18 -8.0739657317e-19 +1.4294057974e-15 5.1100000000e-04 5.1099893000e-04 0.0000e+00 1.0000e+00
       50  1    1    2    0    0 +7.5650393308e-02 -8.0691884228e-03 +2.9366446570e+01 2.9366545544e+01 4.9935713700e-03 0.0000e+00 0.0000e+00
       11  1    1    2    0    0 +1.0788269716e-02 -8.6174090115e-03 +1.7531754341e-01 1.7586116299e-01 5.1099893000e-04 0.0000e+00 1.0000e+00
<vert_displacement>
187.03473704720147
</vert_displacement>
</event>
<event>
 4   1200 +8.5212000e+10 1.63643200e-02 7.81665300e-03            nan
       50 -1    0    0    0    0 +3.3966667142e-03 -9.9020196528e-03 +8.3602008716e+00 8.3602089170e+00 4.9935713700e-03 0.0000e+00 0.0000e+00
       11 -1    0    0    0    0 -1.7479049776e-19 +5.0955218442e-19 -4.3021108477e-16 5.1100000000e-04 5.1099893000e-04 0.0000e+00 1.0000e+00
       50  1    1    2    0    0 -7.6119355952e-03 +1.5165711599e-03 +8.1153858943e+00 8.1153911422e+00 4.9935713700e-03 0.0000e+00 0.0000e+00
       11  1    1    2    0    0 +1.1008602309e-02 -1.1418590813e-02 +2.4481497722e-01 2.4532877478e-01 5.1099893000e-04 0.0000e+00 1.0000e+00
<vert_displacement>
429.88751257658453
</vert_displacement>
</event>
<event>
 4   1200 +8.5212000e+10 6.78843100e-03 7.81665300e-03            nan
       50 -1    0    0    0    0 -1.7296644256e-02 +1.3590044135e-02 +5.9827844563e+00 5.9828269781e+00 4.9935713700e-03 0.0000e+00 0.0000e+00
       11 -1    0    0    0    0 +4.4133512066e-19 -3.4675880934e-19 -1.5265463409e-16 5.1100000000e-04 5.1099893000e-04 0.0000e+00 1.0000e+00
       50  1    1    2    0    0 -1.9085708640e-02 +9.3324290770e-03 +5.9620228585e+00 5.9620628024e+00 4.9935713700e-03 0.0000e+00 0.0000e+00
       11  1    1    2    0    0 +1.7890643837e-03 +4.2576150577e-03 +2.0761597751e-02 2.1275175638e-02 5.1099893000e-04 0.0000e+00 1.0000e+00
<vert_displacement>
332.14596893431548
</vert_displacement>
</event>
<event>
 4   1200 +8.5212000e+10 1.74278100e-02 7.81665300e-03            nan
       50 -1    0    0    0    0 +1.6181024326e-02 -1.4141061818e-02 +1.1972045784e+01 1.1972066112e+01 4.9935713700e-03 0.0000e+00 0.0000e+00
       11 -1    0    0    0    0 +1.1160255843e-18 -9.7532680627e-19 +8.2572704436e-16 5.1100000000e-04 5.1099893000e-04 0.0000e+00 1.0000e+00
       50  1    1    2    0    0 +2.7804174064e-02 -2.5420395819e-02 +1.1692682814e+01 1.1692744571e+01 4.9935713700e-03 0.0000e+00 0.0000e+00
       11  1    1    2    0    0 -1.1623149738e-02 +1.1279334001e-02 +2.7936296967e-01 2.7983254087e-01 5.1099893000e-04 0.0000e+00 1.0000e+00
<vert_displacement>
3.6935067165790998
</vert_displacement>
</event>
<event>
 4   1200 +8.5212000e+10 1.35028500e-02 7.81665300e-03            nan
       50 -1    0    0    0    0 -1.6990213654e-02 -1.1090794509e-02 +4.9996840018e+00 4.9997276652e+00 4.9935713700e-03 0.0000e+00 0.0000e+00
       11 -1    0    0    0    0 -2.4758951782e-18 -1.6162036103e-18 +7.2857786046e-16 5.1100000000e-04 5.1099893000e-04 0.0000e+00 1.0000e+00
       50  1    1    2    0    0 -4.6860296829e-03 -6.3779538398e-03 +4.8406283250e+00 4.8406373706e+00 4.9935713700e-03 0.0000e+00 0.0000e+00
       11  1    1    2    0    0 -1.2304183971e-02 -4.7128406691e-03 +1.5905567679e-01 1.5960129463e-01 5.1099893000e-04 0.0000e+00 1.0000e+00
<vert_displacement>
331.43757511419443
</vert_displacement>
</event>
<event>
 4   1200 +8.5212000e+10 1.88121400e-02 7.81665300e-03            nan
       50 -1    0    0    0    0 -1.1990383450e-02 -2.0617413088e-02 +9.3216301655e+00 9.3216620151e+00 4.9935713700e-03 0.0000e+00 0.0000e+00
       11 -1    0    0    0    0 -5.3552688627e-20 -9.2083619180e-20 +4.1633227147e-17 5.1100000000e-04 5.1099893000e-04 0.0000e+00 1.0000e+00
       50  1    1    2    0    0 -8.3931801725e-03 -2.0204672953e-03 +8.9877871406e+00 8.9877926739e+00 4.9935713700e-03 0.0000e+00 0.0000e+00
       11  1    1    2    0    0 -3.5972032774e-03 -1.8596945793e-02 +3.3384302487e-01 3.3438034129e-01 5.1099893000e-04 0.0000e+00 1.0000e+00
<vert_displacement>
281.91101440473699
</vert_displacement>
</event>
<event>
 4   1200 +8.5212000e+10 1.72522600e-02 7.81665300e-03            nan
       50 -1    0    0    0    0 -1.0765956208e-02 -3.1769344273e-02 +1.4742931984e+01 1.4742970990e+01 4.9935713700e-03 0.0000e+00 0.0000e+00
       11 -1    0    0    0    0 -5.5737893983e-19 -1.6447738676e-18 +7.6327635377e-16 5.1100000000e-04 5.1099893000e-04 0.0000e+00 1.0000e+00
       50  1    1    2    0    0 -6.5009468069e-03 -1.5178286980e-02 +1.4471104996e+01 1.4471115278e+01 4.9935713700e-03 0.0000e+00 0.0000e+00
       11  1    1    2    0    0 -4.2650094009e-03 -1.6591057293e-02 +2.7182698735e-01 2.7236671174e-01 5.1099893000e-04 0.0000e+00 1.0000e+00
<vert_displacement>
240.66319769751379
</vert_displacement>
</event>
<event>
 4   1200 +8.5212000e+10 1.35858300e-02 7.81665300e-03            nan
       50 -1    0    0    0    0 -3.9677008603e-02 +1.6528843585e-02 +2.1224493157e+01 2.1224537266e+01 4.9935713700e-03 0.0000e+00 0.0000e+00
       11 -1    0    0    0    0 -2.3348740334e-19 +9.7267332006e-20 +1.2489983416e-16 5.1100000000e-04 5.1099893000e-04 0.0000e+00 1.0000e+00
       50  1    1    2    0    0 -5.1765658386e-02 +1.8916955586e-02 +2.1067093919e+01 2.1067166603e+01 4.9935713700e-03 0.0000e+00 0.0000e+00
       11  1    1    2    0    0 +1.2088649783e-02 -2.3881120014e-03 +1.5739923754e-01 1.5788166338e-01 5.1099893000e-04 0.0000e+00 1.0000e+00
<vert_displacement>
453.99794689962351
</vert_displacement>
</event>
<event>
 4   1200 +8.5212000e+10 1.95913300e-02 7.81665300e-03            nan
       50 -1    0    0    0    0 +2.2822457332e-03 +6.0036899686e-04 +3.9168864244e+00 3.9168903184e+00 4.9935713700e-03 0.0000e+00 0.0000e+00
       11 -1    0    0    0    0 -9.2990681258e-20 -2.4462187052e-20 -1.5959453082e-16 5.1100000000e-04 5.1099893000e-04 0.0000e+00 -1.0000e+00
       50  1    1    2    0    0 -1.5686402313e-04 +1.9355243835e-02 +3.5265391879e+00 3.5265958415e+00 4.9935713700e-03 0.0000e+00 0.0000e+00
       11  1    1    2    0    0 +2.4391097563e-03 -1.8754874838e-02 +3.9034723655e-01 3.9080547692e-01 5.1099893000e-04 0.0000e+00 -1.0000e+00
<vert_displacement>
56.263945032688767
</vert_displacement>
</event>
<event>
 4   1200 +8.5212000e+10 9.51857700e-03 7.81665300e-03            nan
       50 -1    0    0    0    0 +3.8393383895e-03 -3.4807903678e-02 +1.4397480613e+01 1.4397524067e+01 4.9935713700e-03 0.0000e+00 0.0000e+00
       11 -1    0    0    0    0 +3.3676755161e-19 -3.0531751331e-18 +1.2628749549e-15 5.1100000000e-04 5.1099893000e-04 0.0000e+00 1.0000e+00
       50  1    1    2    0    0 +3.5478087492e-03 -4.2750738604e-02 +1.4332915201e+01 1.4332980266e+01 4.9935713700e-03 0.0000e+00 0.0000e+00
       11  1    1    2    0    0 +2.9152964032e-04 +7.9428349255e-03 +6.4565412648e-02 6.5054801871e-02 5.1099893000e-04 0.0000e+00 1.0000e+00
<vert_displacement>
49.001134592576044
</vert_displacement>
</event>
<event>
 4   1200 +8.5212000e+10 7.40780400e-03 7.81665300e-03            nan
       50 -1    0    0    0    0 +1.6420510388e-02 -3.3381572663e-02 +2.3921230439e+01 2.3921259888e+01 4.9935713700e-03 0.0000e+00 0.0000e+00
       11 -1    0    0    0    0 -7.0494392864e-19 +1.4330941256e-18 -1.0269550559e-15 5.1100000000e-04 5.1099893000e-04 0.0000e+00 1.0000e+00
       50  1    1    2    0    0 +2.0157979458e-02 -3.7318095841e-02 +2.3891890412e+01 2.3891928582e+01 4.9935713700e-03 0.0000e+00 0.0000e+00
       11  1    1    2    0    0 -3.7374690699e-03 +3.9365231779e-03 +2.9340027329e-02 2.9842305765e-02 5.1099893000e-04 0.0000e+00 1.0000e+00
<vert_displacement>
308.61438878013661
</vert_displacement>
</event>
<event>
 4   1200 +8.5212000e+10 1.05580600e-02 7.81665300e-03            nan
       50 -1    0    0    0    0 +5.7117111248e-02 -6.1424962748e-03 +2.0960753023e+01 2.0960832338e+01 4.9935713700e-03 0.0000e+00 0.0000e+00
       11 -1    0    0    0    0 -2.6093182764e-18 +2.8061166684e-19 -9.5756376249e-16 5.1100000000e-04 5.1099893000e-04 0.0000e+00 1.0000e+00
       50  1    1    2    0    0 +5.1993800439e-02 -1.4030147252e-02 +2.0875742965e+01 2.0875813025e+01 4.9935713700e-03 0.0000e+00 0.0000e+00
       11  1    1    2    0    0 +5.1233108087e-03 +7.8876509769e-03 +8.5010058061e-02 8.5530313007e-02 5.1099893000e-04 0.0000e+00 1.0000e+00
<vert_displacement>
436.27807434124225
</vert_displacement>
</event>
<event>
 4   1200 +8.5212000e+10 1.03000900e-02 7.81665300e-03            nan
       50 -1    0    0    0    0 +4.4269997170e-02 +2.8869911116e-02 +2.5488735403e+01 2.5488790687e+01 4.9935713700e-03 0.0000e+00 0.0000e+00
       11 -1    0    0    0    0 -3.6396318912e-18 -2.3735228352e-18 -2.0955414541e-15 5.1100000000e-04 5.1099893000e-04 0.0000e+00 1.0000e+00
       50  1    1    2    0    0 +4.9318521975e-02 +2.1414068935e-02 +2.5409075091e+01 2.5409132468e+01 4.9935713700e-03 0.0000e+00 0.0000e+00
       11  1    1    2    0    0 -5.0485248052e-03 +7.4558421809e-03 +7.9660312551e-02 8.0169219162e-02 5.1099893000e-04 0.0000e+00 1.0000e+00
<vert_displacement>
52.349456434761606
</vert_displacement>
</event>
<event>
 4   1200 +8.5212000e+10 1.14125700e-02 7.81665300e-03            nan
       50 -1    0    0    0    0 +6.3280028521e-03 -5.5904714586e-03 +6.0826527738e+00 6.0826606842e+00 4.9935713700e-03 0.0000e+00 0.0000e+00
       11 -1    0    0    0    0 -4.1147014061e-19 +3.6351312269e-19 -3.9551657144e-16 5.1100000000e-04 5.1099893000e-04 0.0000e+00 1.0000e+00
       50  1    1    2    0    0 +1.6734545164e-03 +3.7064445588e-03 +5.9777980777e+00 5.9778015467e+00 4.9935713700e-03 0.0000e+00 0.0000e+00
       11  1    1    2    0    0 +4.6545483357e-03 -9.2969160174e-03 +1.0485469608e-01 1.0537013750e-01 5.1099893000e-04 0.0000e+00 1.0000e+00
<vert_displacement>
62.824987802679743
</vert_displacement>
</event>
<event>
 4   1200 +8.5212000e+10 2.99934100e-02 7.81665300e-03            nan
       50 -1    0    0    0    0 +2.1588999784e-02 +6.7367923752e-02 +4.1666223693e+01 4.1666284047e+01 4.9935713700e-03 0.0000e+00 0.0000e+00
       11 -1    0    0    0    0 +1.4956546746e-18 +4.6671523038e-18 +2.8865757035e-15 5.1100000000e-04 5.1099893000e-04 0.0000e+00 1.0000e+00
       50  1    1    2    0    0 +4.6749297836e-02 +8.0740569150e-02 +4.0791984359e+01 4.0792091359e+01 4.9935713700e-03 0.0000e+00 0.0000e+00
       11  1    1    2    0    0 -2.5160298052e-02 -1.3372645398e-02 +8.7423933390e-01 8.7470368829e-01 5.1099893000e-04 0.0000e+00 1.0000e+00
<vert_displacement>
134.45715614414797
</vert_displacement>
</event>
<event>
 4   1200 +8.5212000e+10 1.55566800e-02 7.81665300e-03            nan
       50 -1    0    0    0    0 +7.4385458742e-03 +2.8434147928e-03 +4.1547159866e+00 4.1547266195e+00 4.9935713700e-03 0.0000e+00 0.0000e+00
       11 -1    0    0    0    0 -1.3417138705e-18 -5.1287565224e-19 -7.4939916503e-16 5.1100000000e-04 5.1099893000e-04 0.0000e+00 1.0000e+00
       50  1    1    2    0    0 -7.6926742727e-03 +3.0500325074e-03 +3.9300974378e+00 3.9301093224e+00 4.9935713700e-03 0.0000e+00 0.0000e+00
       11  1    1    2    0    0 +1.5131220147e-02 -2.0661771460e-04 +2.2461854885e-01 2.2512829702e-01 5.1099893000e-04 0.0000e+00 1.0000e+00
<vert_displacement>
143.72053320715125
</vert_displacement>
</event>
<event>
 4   1200 +8.5212000e+10 2.50650300e-02 7.81665300e-03            nan
       50 -1    0    0    0    0 -2.9196349231e-02 +7.5833900716e-03 +1.0211037371e+01 1.0211083148e+01 4.9935713700e-03 0.0000e+00 0.0000e+00
       11 -1    0    0    0    0 +8.7297079094e-19 -2.2674334988e-19 -3.0530999954e-16 5.1100000000e-04 5.1099893000e-04 0.0000e+00 1.0000e+00
       50  1    1    2    0    0 -1.2081635487e-02 +2.6319005332e-02 +9.5818415328e+00 9.5818865967e+00 4.9935713700e-03 0.0000e+00 0.0000e+00
       11  1    1    2    0    0 -1.7114713744e-02 -1.8735615260e-02 +6.2919583828e-01 6.2970755176e-01 5.1099893000e-04 0.0000e+00 1.0000e+00
<vert_displacement>
29.062396070053815
</vert_displacement>
</event>
<event>
 4   1200 +8.5212000e+10 1.96664800e-02 7.81665300e-03            nan
       50 -1    0    0    0    0 +1.0130001870e-02 -4.7479408108e-02 +2.6794834749e+01 2.6794879195e+01 4.9935713700e-03 0.0000e+00 0.0000e+00
       11 -1    0    0    0    0 +8.8142883573e-19 -4.1312647271e-18 +2.3314645249e-15 5.1100000000e-04 5.1099893000e-04 0.0000e+00 1.0000e+00
       50  1    1    2    0    0 -7.8772478181e-03 -5.3358205577e-02 +2.6435967718e+01 2.6436023212e+01 4.9935713700e-03 0.0000e+00 0.0000e+00
       11  1    1    2    0    0 +1.8007249688e-02 +5.8787974694e-03 +3.5886703085e-01 3.5936698270e-01 5.1099893000e-04 0.0000e+00 1.0000e+00
<vert_displacement>
377.77789850159496
</vert_displacement>
</event>
<event>
 4   1200 +8.5212000e+10 1.34584400e-02 7.81665300e-03            nan
       50 -1    0    0    0    0 -1.2623826286e-02 -1.2742850944e-02 +1.2092675345e+01 1.2092689679e+01 4.9935713700e-03 0.0000e+00 0.0000e+00
       11 -1    0    0    0    0 -3.3320861183e-19 -3.3635029331e-19 +3.1918876844e-16 5.1100000000e-04 5.1099893000e-04 0.0000e+00 1.0000e+00
       50  1    1    2    0    0 -2.0488347662e-02 -2.9997891279e-03 +1.1937853102e+01 1.1937872105e+01 4.9935713700e-03 0.0000e+00 0.0000e+00
       11  1    1    2    0    0 +7.8645213763e-03 -9.7430618162e-03 +1.5482224270e-01 1.5532857402e-01 5.1099893000e-04 0.0000e+00 1.0000e+00
<vert_displacement>
51.295277281711606
</vert_displacement>
</event>
<event>
 4   1200 +8.5212000e+10 5.85999600e-02 7.81665300e-03            nan
       50 -1    0    0    0    0 +5.3546306659e-02 +6.6490023395e-02 +2.8903300945e+01 2.8903427454e+01 4.9935713700e-03 0.0000e+00 0.0000e+00
       11 -1    0    0    0    0 -3.6765160132e-18 -4.5652380337e-18 -1.9845150000e-15 5.1100000000e-04 5.1099893000e-04 0.0000e+00 1.0000e+00
       50  1    1    2    0    0 +4.0558714948e-02 -4.5534442578e-04 +2.5054892250e+01 2.5054925580e+01 4.9935713700e-03 0.0000e+00 0.0000e+00
       11  1    1    2    0    0 +1.2987591711e-02 +6.6945367821e-02 +3.8484086950e+00 3.8490128741e+00 5.1099893000e-04 0.0000e+00 1.0000e+00
<vert_displacement>
313.24681188107371
</vert_displacement>
</event>
<event>
 4   1200 +8.5212000e+10 1.19334700e-02 7.81665300e-03            nan
       50 -1    0    0    0    0 +2.3515338912e-03 +3.9650965900e-02 +2.0086963462e+01 2.0087003355e+01 4.9935713700e-03 0.0000e+00 0.0000e+00
       11 -1    0    0    0    0 +1.7058688764e-19 +2.8763926771e-18 +1.4571648709e-15 5.1100000000e-04 5.1099893000e-04 0.0000e+00 1.0000e+00
       50  1    1    2    0    0 -7.8022945402e-03 +3.5595693257e-02 +1.9971360025e+01 1.9971393895e+01 4.9935713700e-03 0.0000e+00 0.0000e+00
       11  1    1    2    0    0 +1.0153828431e-02 +4.0552726430e-03 +1.1560343692e-01 1.1612045994e-01 5.1099893000e-04 0.0000e+00 1.0000e+00
<vert_displacement>
257.52073210722119
</vert_displacement>
</event>
<event>
 4   1200 +8.5212000e+10 3.06396000e-02 7.81665300e-03            nan
       50 -1    0    0    0    0 +1.2340137317e-01 +8.2181127099e-02 +3.8536757818e+01 3.8537043344e+01 4.9935713700e-03 0.0000e+00 0.0000e+00
       11 -1    0    0    0    0 -1.1598514099e-17 -7.7242168125e-18 -3.6220758116e-15 5.1100000000e-04 5.1099893000e-04 0.0000e+00 1.0000e+00
       50  1    1    2    0    0 +1.0608029452e-01 +1.0681415622e-01 +3.7620779630e+01 3.7621081154e+01 4.9935713700e-03 0.0000e+00 0.0000e+00
       11  1    1    2    0    0 +1.7321078646e-02 -2.4633029124e-02 +9.1597818734e-01 9.1647318930e-01 5.1099893000e-04 0.0000e+00 1.0000e+00
<vert_displacement>
121.61910388956733
</vert_displacement>
</event>
<event>
 4   1200 +8.5212000e+10 1.94574900e-02 7.81665300e-03            nan
       50 -1    0    0    0    0 +3.2299573021e-03 +2.8869703868e-02 +1.8813551833e+01 1.8813574924e+01 4.9935713700e-03 0.0000e+00 0.0000e+00
       11 -1    0    0    0    0 -1.1198080109e-19 -1.0008963785e-18 -6.5225524941e-16 5.1100000000e-04 5.1099893000e-04 0.0000e+00 1.0000e+00
       50  1    1    2    0    0 +3.1746939665e-03 +4.7134298932e-02 +1.8460849182e+01 1.8460910302e+01 4.9935713700e-03 0.0000e+00 0.0000e+00
       11  1    1    2    0    0 +5.5263335631e-05 -1.8264595064e-02 +3.5270265071e-01 3.5317562122e-01 5.1099893000e-04 0.0000e+00 1.0000e+00
<vert_displacement>
243.32401851011713
</vert_displacement>
</event>
<event>
 4   1200 +8.5212000e+10 1.10189000e-02 7.81665300e-03            nan
       50 -1    0    0    0    0 -1.1984044405e-01 -8.7987108522e-02 +3.9602324817e+01 3.9602604199e+01 4.9935713700e-03 0.0000e+00 0.0000e+00
       11 -1    0    0    0    0 -3.3596179851e-19 -2.4666386594e-19 +1.1102152012e-16 5.1100000000e-04 5.1099893000e-04 0.0000e+00 1.0000e+00
       50  1    1    2    0    0 -1.2642366674e-01 -8.0756234620e-02 +3.9507689285e+01 3.9507974411e+01 4.9935713700e-03 0.0000e+00 0.0000e+00
       11  1    1    2    0    0 +6.5832226857e-03 -7.2308739019e-03 +9.4635532579e-02 9.5140787808e-02 5.1099893000e-04 0.0000e+00 1.0000e+00
<vert_displacement>
100.62739381404639
</vert_displacement>
</event>
<event>
 4   1200 +8.5212000e+10 1.62689200e-02 7.81665300e-03            nan
       50 -1    0    0    0    0 -4.3011628451e-02 -2.4146942884e-02 +1.3985891564e+01 1.3985979438e+01 4.9935713700e-03 0.0000e+00 0.0000e+00
       11 -1    0    0    0    0 -7.2554138889e-19 -4.0732255691e-19 +2.3592092546e-16 5.1100000000e-04 5.1099893000e-04 0.0000e+00 1.0000e+00
       50  1    1    2    0    0 -4.6719997260e-02 -8.9022312783e-03 +1.3747235208e+01 1.3747318386e+01 4.9935713700e-03 0.0000e+00 0.0000e+00
       11  1    1    2    0    0 +3.7083688093e-03 -1.5244711606e-02 +2.3865635578e-01 2.3917205210e-01 5.1099893000e-04 0.0000e+00 1.0000e+00
<vert_displacement>
472.44458174860546
</vert_displacement>
</event>
<event>
 4   1200 +8.5212000e+10 1.99487000e-02 7.81665300e-03            nan
       50 -1    0    0    0    0 -7.2128073398e-02 +5.7058434802e-02 +3.0897738305e+01 3.0897875581e+01 4.9935713700e-03 0.0000e+00 0.0000e+00
       11 -1    0    0    0    0 +2.8184816591e-18 -2.2296194035e-18 -1.2073621908e-15 5.1100000000e-04 5.1099893000e-04 0.0000e+00 1.0000e+00
       50  1    1    2    0    0 -7.3184186377e-02 +7.5594286057e-02 +3.0528288518e+01 3.0528470240e+01 4.9935713700e-03 0.0000e+00 0.0000e+00
       11  1    1    2    0    0 +1.0561129791e-03 -1.8535851255e-02 +3.6944978671e-01 3.6991634078e-01 5.1099893000e-04 0.0000e+00 1.0000e+00
<vert_displacement>
451.25657543786946
</vert_displacement>
</event>
<event>
 4   1200 +8.5212000e+10 2.56548900e-02 7.81665300e-03            nan
       50 -1    0    0    0    0 +3.2423466950e-02 -2.4657148283e-02 +1.4280426618e+01 1.4280485587e+01 4.9935713700e-03 0.0000e+00 0.0000e+00
       11 -1    0    0    0    0 +2.3946957162e-18 -1.8210997442e-18 +1.0547075827e-15 5.1100000000e-04 5.1099893000e-04 0.0000e+00 1.0000e+00
       50  1    1    2    0    0 +4.8916924357e-02 -5.9177992384e-03 +1.3631228075e+01 1.3631318045e+01 4.9935713700e-03 0.0000e+00 0.0000e+00
       11  1    1    2    0    0 -1.6493457408e-02 -1.8739349045e-02 +6.4919854355e-01 6.4967854159e-01 5.1099893000e-04 0.0000e+00 1.0000e+00
<vert_displacement>
328.71612523109604
</vert_displacement>
</event>
<event>
 4   1200 +8.5212000e+10 6.07167900e-03 7.81665300e-03            nan
       50 -1    0    0    0    0 +4.5727634818e-03 +3.2204018042e-03 +2.0881927012e+00 2.0882061618e+00 4.9935713700e-03 0.0000e+00 0.0000e+00
       11 -1    0    0    0    0 -1.5954608577e-19 -1.1236148655e-19 -7.2858124661e-17 5.1100000000e-04 5.1099893000e-04 0.0000e+00 1.0000e+00
       50  1    1    2    0    0 +7.2792598237e-03 +1.0893444510e-03 +2.0764476072e+00 2.0764666565e+00 4.9935713700e-03 0.0000e+00 0.0000e+00
       11  1    1    2    0    0 -2.7064963418e-03 +2.1310573532e-03 +1.1745093974e-02 1.2250505306e-02 5.1099893000e-04 0.0000e+00 1.0000e+00
<vert_displacement>
193.56640566642599
</vert_displacement>
</event>
<event>
 4   1200 +8.5212000e+10 6.73613800e-03 7.81665300e-03            nan
       50 -1    0    0    0    0 -5.1960905683e-02 +6.4788830549e-02 +4.0227119397e+01 4.0227205439e+01 4.9935713700e-03 0.0000e+00 0.0000e+00
       11 -1    0    0    0    0 -4.5889894610e-18 +5.7219029706e-18 +3.5527061073e-15 5.1100000000e-04 5.1099893000e-04 0.0000e+00 1.0000e+00
       50  1    1    2    0    0 -5.6398925543e-02 +6.4039889645e-02 +4.0207104808e+01 4.0207195673e+01 4.9935713700e-03 0.0000e+00 0.0000e+00
       11  1    1    2    0    0 +4.4380198608e-03 +7.4894090459e-04 +2.0014589320e-02 2.0520766027e-02 5.1099893000e-04 0.0000e+00 1.0000e+00
<vert_displacement>
91.229409692451483
</vert_displacement>
</event>
<event>
 4   1200 +8.5212000e+10 5.08779900e-03 7.81665300e-03            nan
       50 -1    0    0    0    0 +2.9198457600e-02 -2.1860841896e-02 +2.0648757105e+01 2.0648789925e+01 4.9935713700e-03 0.0000e+00 0.0000e+00
       11 -1    0    0    0    0 -3.9247821516e-19 +2.9384785754e-19 -2.7755532312e-16 5.1100000000e-04 5.1099893000e-04 0.0000e+00 1.0000e+00
       50  1    1    2    0    0 +2.9493539129e-02 -2.2788345333e-02 +2.0647826148e+01 2.0647860391e+01 4.9935713700e-03 0.0000e+00 0.0000e+00
       11  1    1    2    0    0 -2.9508152808e-04 +9.2750343612e-04 +9.3095735087e-04 1.4405336608e-03 5.1099893000e-04 0.0000e+00 1.0000e+00
<vert_displacement>
72.415420146274030
</vert_displacement>
</event>
<event>
 4   1200 +8.5212000e+10 7.63975300e-03 7.81665300e-03            nan
       50 -1    0    0    0    0 +8.5508075492e-02 -1.5333856164e-02 +6.7908144207e+01 6.7908199956e+01 4.9935713700e-03 0.0000e+00 0.0000e+00
       11 -1    0    0    0    0 -1.2232161242e-18 +2.1935495563e-19 -9.7144435166e-16 5.1100000000e-04 5.1099893000e-04 0.0000e+00 1.0000e+00
       50  1    1    2    0    0 +8.2480791295e-02 -2.0277568117e-02 +6.7875420418e+01 6.7875473745e+01 4.9935713700e-03 0.0000e+00 0.0000e+00
       11  1    1    2    0    0 +3.0272841973e-03 +4.9437119532e-03 +3.2723788510e-02 3.3237210951e-02 5.1099893000e-04 0.0000e+00 1.0000e+00
<vert_displacement>
315.31890205657220
</vert_displacement>
</event>
<event>
 4   1200 +8.5212000e+10 6.51958900e-03 7.81665300e-03            nan
       50 -1    0    0    0    0 -2.6592060284e-02 +2.7707445817e-02 +1.1967679924e+01 1.1967742583e+01 4.9935713700e-03 0.0000e+00 0.0000e+00
       11 -1    0    0    0    0 -8.9424809962e-19 +9.3175671620e-19 +4.0245377433e-16 5.1100000000e-04 5.1099893000e-04 0.0000e+00 1.0000e+00
       50  1    1    2    0    0 -2.3218833118e-02 +2.5128477873e-02 +1.1950476666e+01 1.1950526684e+01 4.9935713700e-03 0.0000e+00 0.0000e+00
       11  1    1    2    0    0 -3.3732271662e-03 +2.5789679442e-03 +1.7203258145e-02 1.7726898992e-02 5.1099893000e-04 0.0000e+00 1.0000e+00
<vert_displacement>
34.823418142539488
</vert_displacement>
</event>
<event>
 4   1200 +8.5212000e+10 2.35910200e-02 7.81665300e-03            nan
       50 -1    0    0    0    0 +7.3365901663e-02 -5.0739862669e-02 +3.3042443680e+01 3.3042564464e+01 4.9935713700e-03 0.0000e+00 0.0000e+00
       11 -1    0    0    0    0 +1.0784718296e-18 -7.4587119204e-19 +4.8572080330e-16 5.1100000000e-04 5.1099893000e-04 0.0000e+00 1.0000e+00
       50  1    1    2    0    0 +6.6452862132e-02 -7.2258814574e-02 +3.2513795448e+01 3.2513944035e+01 4.9935713700e-03 0.0000e+00 0.0000e+00
       11  1    1    2    0    0 +6.9130395311e-03 +2.1518951905e-02 +5.2864823152e-01 5.2913142906e-01 5.1099893000e-04 0.0000e+00 1.0000e+00
<vert_displacement>
461.14433959408427
</vert_displacement>
</event>
<event>
 4   1200 +8.5212000e+10 9.64599100e-03 7.81665300e-03            nan
       50 -1    0    0    0    0 +1.1789361493e-01 +4.0893233501e-02 +3.7632590697e+01 3.7632797912e+01 4.9935713700e-03 0.0000e+00 0.0000e+00
       11 -1    0    0    0    0 -9.6950239415e-18 -3.3628698049e-18 -3.0947296680e-15 5.1100000000e-04 5.1099893000e-04 0.0000e+00 1.0000e+00
       50  1    1    2    0    0 +1.2488108854e-01 +3.6781172976e-02 +3.7565810250e+01 3.7566036161e+01 4.9935713700e-03 0.0000e+00 0.0000e+00
       11  1    1    2    0    0 -6.9874736078e-03 +4.1120605247e-03 +6.6780447004e-02 6.7272751179e-02 5.1099893000e-04 0.0000e+00 1.0000e+00
<vert_displacement>
154.66873439091867
</vert_displacement>
</event>
<event>
 4   1200 +8.5212000e+10 1.10097100e-02 7.81665300e-03            nan
       50 -1    0    0    0    0 -3.3389229104e-02 -4.7147678445e-02 +2.3827888884e+01 2.3827959446e+01 4.9935713700e-03 0.0000e+00 0.0000e+00
       11 -1    0    0    0    0 +9.7232129297e-20 +1.3729784393e-19 -6.9388735081e-17 5.1100000000e-04 5.1099893000e-04 0.0000e+00 1.0000e+00
       50  1    1    2    0    0 -2.3455480849e-02 -4.7423222281e-02 +2.3733318649e+01 2.3733378145e+01 4.9935713700e-03 0.0000e+00 0.0000e+00
       11  1    1    2    0    0 -9.9337482544e-03 +2.7554383636e-04 +9.4570234995e-02 9.5092301190e-02 5.1099893000e-04 0.0000e+00 1.0000e+00
<vert_displacement>
170.92568749326449
</vert_displacement>
</event>
<event>
 4   1200 +8.5212000e+10 1.46539400e-02 7.81665300e-03            nan
       50 -1    0    0    0    0 +1.3130984895e-02 -1.1142452650e-02 +6.0047832023e+00 6.0048099737e+00 4.9935713700e-03 0.0000e+00 0.0000e+00
       11 -1    0    0    0    0 -6.9798527769e-19 +5.9228366868e-19 -3.1918780690e-16 5.1100000000e-04 5.1099893000e-04 0.0000e+00 1.0000e+00
       50  1    1    2    0    0 -1.9190878974e-04 -5.9587374069e-03 +5.8129321854e+00 5.8129373875e+00 4.9935713700e-03 0.0000e+00 0.0000e+00
       11  1    1    2    0    0 +1.3322893684e-02 -5.1837152426e-03 +1.9185101694e-01 1.9238358615e-01 5.1099893000e-04 0.0000e+00 1.0000e+00
<vert_displacement>
136.93616975435046
</vert_displacement>
</event>
<event>
 4   1200 +8.5212000e+10 2.97929800e-02 7.81665300e-03            nan
       50 -1    0    0    0    0 -1.9457356851e-02 +8.0514101317e-03 +1.1559972007e+01 1.1559992265e+01 4.9935713700e-03 0.0000e+00 0.0000e+00
       11 -1    0    0    0    0 -8.6426775047e-19 +3.5763203482e-19 +5.1347729699e-16 5.1100000000e-04 5.1099893000e-04 0.0000e+00 1.0000e+00
       50  1    1    2    0    0 -4.0504164277e-02 -1.1358593105e-02 +1.0642893612e+01 1.0642977919e+01 4.9935713700e-03 0.0000e+00 0.0000e+00
       11  1    1    2    0    0 +2.1046807426e-02 +1.9410003237e-02 +9.1707839542e-01 9.1752534613e-01 5.1099893000e-04 0.0000e+00 1.0000e+00
<vert_displacement>
387.57954765034100
</vert_displacement>
</event>
<event>
 4   1200 +8.5212000e+10 2.07263100e-02 7.81665300e-03            nan
       50 -1    0    0    0    0 -4.5164972664e-03 -6.5088533062e-02 +3.8285219870e+01 3.8285275790e+01 4.9935713700e-03 0.0000e+00 0.0000e+00
       11 -1    0    0    0    0 -3.6672307423e-19 -5.2849510437e-18 +3.1086199549e-15 5.1100000000e-04 5.1099893000e-04 0.0000e+00 1.0000e+00
       50  1    1    2    0    0 +1.2866205172e-02 -5.4204152530e-02 +3.7885116452e+01 3.7885157742e+01 4.9935713700e-03 0.0000e+00 0.0000e+00
       11  1    1    2    0    0 -1.7382702438e-02 -1.0884380532e-02 +4.0010341776e-01 4.0062904800e-01 5.1099893000e-04 0.0000e+00 1.0000e+00
<vert_displacement>
76.674572705254548
</vert_displacement>
</event>
<event>
 4   1200 +8.5212000e+10 1.57811500e-02 7.81665300e-03            nan
       50 -1    0    0    0    0 -1.1803098596e-02 -9.3447698578e-03 +1.3950312063e+01 1.3950321079e+01 4.9935713700e-03 0.0000e+00 0.0000e+00
       11 -1    0    0    0    0 -1.4794580229e-18 -1.1713190927e-18 +1.7486002456e-15 5.1100000000e-04 5.1099893000e-04 0.0000e+00 1.0000e+00
       50  1    1    2    0    0 +2.9399527454e-03 -1.2699122373e-02 +1.3727463115e+01 1.3727470212e+01 4.9935713700e-03 0.0000e+00 0.0000e+00
       11  1    1    2    0    0 -1.4743051341e-02 +3.3543525150e-03 +2.2284894794e-01 2.2336186774e-01 5.1099893000e-04 0.0000e+00 1.0000e+00
<vert_displacement>
319.26283949062815
</vert_displacement>
</event>
<event>
 4   1200 +8.5212000e+10 2.61385700e-02 7.81665300e-03            nan
       50 -1    0    0    0    0 -1.7048294274e-02 -3.5210801382e-03 +3.9354943664e+01 3.9354947831e+01 4.9935713700e-03 0.0000e+00 0.0000e+00
       11 -1    0    0    0    0 +1.6832935908e-19 +3.4766009632e-20 -3.8857802060e-16 5.1100000000e-04 5.1099893000e-04 0.0000e+00 1.0000e+00
       50  1    1    2    0    0 -4.1736907337e-02 -9.3505585136e-03 +3.8699896368e+01 3.8699920326e+01 4.9935713700e-03 0.0000e+00 0.0000e+00
       11  1    1    2    0    0 +2.4688613063e-02 +5.8294783754e-03 +6.5504729550e-01 6.5553850451e-01 5.1099893000e-04 0.0000e+00 1.0000e+00
<vert_displacement>
251.31019428263204
</vert_displacement>
</event>
<event>
 4   1200 +8.5212000e+10 2.26383900e-02 7.81665300e-03            nan
       50 -1    0    0    0    0 +1.2111332393e-03 -5.1082683213e-03 +3.8530963694e+00 3.8531031817e+00 4.9935713700e-03 0.0000e+00 0.0000e+00
       11 -1    0    0    0    0 +1.1123515705e-19 -4.6916310321e-19 +3.5388326062e-16 5.1100000000e-04 5.1099893000e-04 0.0000e+00 1.0000e+00
       50  1    1    2    0    0 -1.9956172762e-02 -1.1216656573e-02 +3.2944676702e+00 3.2945509903e+00 4.9935713700e-03 0.0000e+00 0.0000e+00
       11  1    1    2    0    0 +2.1167306001e-02 +6.1083882521e-03 +5.5862869925e-01 5.5906319142e-01 5.1099893000e-04 0.0000e+00 1.0000e+00
<vert_displacement>
340.97822368186542
</vert_displacement>
</event>
<event>
 4   1200 +8.5212000e+10 6.00328200e-03 7.81665300e-03            nan
       50 -1    0    0    0    0 +2.0875338097e-04 -3.2825778262e-03 +1.2929890991e+01 1.2929892374e+01 4.9935713700e-03 0.0000e+00 0.0000e+00
       11 -1    0    0    0    0 +2.2293690320e-20 -3.5056090191e-19 +1.3808398422e-15 5.1100000000e-04 5.1099893000e-04 0.0000e+00 1.0000e+00
       50  1    1    2    0    0 +2.7192183306e-03 -5.4707822305e-03 +1.2919016181e+01 1.2919018590e+01 4.9935713700e-03 0.0000e+00 0.0000e+00
       11  1    1    2    0    0 -2.5104649496e-03 +2.1882044043e-03 +1.0874810479e-02 1.1384783513e-02 5.1099893000e-04 0.0000e+00 1.0000e+00
<vert_displacement>
159.38349583875970
</vert_displacement>
</event>
<event>
 4   1200 +8.5212000e+10 6.60987400e-03 7.81665300e-03            nan
       50 -1    0    0    0    0 +5.7146476467e-02 +2.4149388115e-02 +1.7118234773e+01 1.7118347922e+01 4.9935713700e-03 0.0000e+00 0.0000e+00
       11 -1    0    0    0    0 +8.2001375351e-18 +3.4652758345e-18 +2.4563523103e-15 5.1100000000e-04 5.1099893000e-04 0.0000e+00 1.0000e+00
       50  1    1    2    0    0 +6.0380240910e-02 +2.1313313472e-02 +1.7099856610e+01 1.7099977224e+01 4.9935713700e-03 0.0000e+00 0.0000e+00
       11  1    1    2    0    0 -3.2337644431e-03 +2.8360746427e-03 +1.8378162449e-02 1.8881698196e-02 5.1099893000e-04 0.0000e+00 1.0000e+00
<vert_displacement>
272.09651349772196
</vert_displacement>
</event>
<event>
 4   1200 +8.5212000e+10 3.00695300e-02 7.81665300e-03            nan
       50 -1    0    0    0    0 +3.5847785603e-02 +1.4622238275e-02 +1.3074802669e+01 1.3074860941e+01 4.9935713700e-03 0.0000e+00 0.0000e+00
       11 -1    0    0    0    0 -2.0927059971e-19 -8.5361048711e-20 -7.6327498328e-17 5.1100000000e-04 5.1099893000e-04 0.0000e+00 1.0000e+00
       50  1    1    2    0    0 +9.1149638937e-03 -3.5567178744e-03 +1.2148833230e+01 1.2148838196e+01 4.9935713700e-03 0.0000e+00 0.0000e+00
       11  1    1    2    0    0 +2.6732821709e-02 +1.8178956150e-02 +9.2596943906e-01 9.2653374541e-01 5.1099893000e-04 0.0000e+00 1.0000e+00
<vert_displacement>
318.19864532120090
</vert_displacement>
</event>
<event>
 4   1200 +8.5212000e+10 1.27705000e-02 7.81665300e-03            nan
       50 -1    0    0    0    0 +1.7515377214e-02 +9.2265232098e-03 +8.6791049578e+00 8.6791289725e+00 4.9935713700e-03 0.0000e+00 0.0000e+00
       11 -1    0    0    0    0 +8.2620093744e-19 +4.3521541284e-19 +4.0939367532e-16 5.1100000000e-04 5.1099893000e-04 0.0000e+00 1.0000e+00
       50  1    1    2    0    0 +2.8905476941e-02 +7.6581457131e-03 +8.5417192807e+00 8.5417730817e+00 4.9935713700e-03 0.0000e+00 0.0000e+00
       11  1    1    2    0    0 -1.1390099727e-02 +1.5683774967e-03 +1.3738567713e-01 1.3786689081e-01 5.1099893000e-04 0.0000e+00 1.0000e+00
<vert_displacement>
221.39225379365797
</vert_displacement>
</event>
<event>
 4   1200 +8.5212000e+10 1.45271900e-02 7.81665300e-03            nan
       50 -1    0    0    0    0 -9.9002419469e-03 +6.4859070331e-04 +9.9959013960e+00 9.9959075671e+00 4.9935713700e-03 0.0000e+00 0.0000e+00
       11 -1    0    0    0    0 -1.3470073002e-18 +8.8245965792e-20 +1.3600225352e-15 5.1100000000e-04 5.1099893000e-04 0.0000e+00 1.0000e+00
       50  1    1    2    0    0 +1.0211361284e-03 -7.7781736511e-03 +9.8103528725e+00 9.8103572801e+00 4.9935713700e-03 0.0000e+00 0.0000e+00
       11  1    1    2    0    0 -1.0921378075e-02 +8.4267643544e-03 +1.8554852349e-01 1.8606128706e-01 5.1099893000e-04 0.0000e+00 1.0000e+00
<vert_displacement>
20.313008449636531
</vert_displacement>
</event>
<event>
 4   1200 +8.5212000e+10 1.22718600e-02 7.81665300e-03            nan
       50 -1    0    0    0    0 -2.0073537842e-02 -1.4405364047e-03 +1.0028659131e+01 1.0028680568e+01 4.9935713700e-03 0.0000e+00 0.0000e+00
       11 -1    0    0    0    0 +2.2222371637e-19 +1.5947430689e-20 -1.1102207891e-16 5.1100000000e-04 5.1099893000e-04 0.0000e+00 1.0000e+00
       50  1    1    2    0    0 -1.8367048870e-02 +9.6921610889e-03 +9.9041503541e+00 9.9041733860e+00 4.9935713700e-03 0.0000e+00 0.0000e+00
       11  1    1    2    0    0 -1.7064889727e-03 -1.1132697494e-02 +1.2450877722e-01 1.2501818181e-01 5.1099893000e-04 0.0000e+00 1.0000e+00
<vert_displacement>
204.07106839824510
</vert_displacement>
</event>
<event>
 4   1200 +8.5212000e+10 3.33624000e-02 7.81665300e-03            nan
       50 -1    0    0    0    0 +4.2102929593e-02 +2.4380881147e-02 +1.2701810618e+01 1.2701904778e+01 4.9935713700e-03 0.0000e+00 0.0000e+00
       11 -1    0    0    0    0 +2.5760350425e-18 +1.4917252744e-18 +7.7715041617e-16 5.1100000000e-04 5.1099893000e-04 0.0000e+00 1.0000e+00
       50  1    1    2    0    0 +2.7835078128e-02 -9.1824421969e-03 +1.1528589236e+01 1.1528627577e+01 4.9935713700e-03 0.0000e+00 0.0000e+00
       11  1    1    2    0    0 +1.4267851465e-02 +3.3563323344e-02 +1.1732213823e+00 1.1737882012e+00 5.1099893000e-04 0.0000e+00 1.0000e+00
<vert_displacement>
129.44729218725584
</vert_displacement>
</event>
<event>
 4   1200 +8.5212000e+10 4.25440700e-02 7.81665300e-03            nan
       50 -1    0    0    0    0 -3.9613764708e-02 +1.8225644844e-02 +1.4858125722e+01 1.4858190547e+01 4.9935713700e-03 0.0000e+00 0.0000e+00
       11 -1    0    0    0    0 -4.1994877909e-18 +1.9321156059e-18 +1.5751221330e-15 5.1100000000e-04 5.1099893000e-04 0.0000e+00 1.0000e+00
       50  1    1    2    0    0 +7.5348483088e-03 +2.2182270548e-02 +1.2835810688e+01 1.2835833038e+01 4.9935713700e-03 0.0000e+00 0.0000e+00
       11  1    1    2    0    0 -4.7148613017e-02 -3.9566257038e-03 +2.0223150334e+00 2.0228685083e+00 5.1099893000e-04 0.0000e+00 1.0000e+00
<vert_displacement>
298.57674671311690
</vert_displacement>
</event>
<event>
 4   1200 +8.5212000e+10 7.17146100e-03 7.81665300e-03            nan
       50 -1    0    0    0    0 -2.0903237634e-02 -2.4426099307e-02 +1.2284320381e+01 1.2284363465e+01 4.9935713700e-03 0.0000e+00 0.0000e+00
       11 -1    0    0    0    0 -7.4386090229e-19 -8.6922516926e-19 +4.3714881888e-16 5.1100000000e-04 5.1099893000e-04 0.0000e+00 1.0000e+00
       50  1    1    2    0    0 -1.8224082240e-02 -2.8796107051e-02 +1.2258336255e+01 1.2258384642e+01 4.9935713700e-03 0.0000e+00 0.0000e+00
       11  1    1    2    0    0 -2.6791553932e-03 +4.3700077435e-03 +2.5984125151e-02 2.6489822972e-02 5.1099893000e-04 0.0000e+00 1.0000e+00
<vert_displacement>
473.95519800137527
</vert_displacement>
</event>
<event>
 4   1200 +8.5212000e+10 1.30237900e-02 7.81665300e-03            nan
       50 -1    0    0    0    0 +3.4313439782e-02 -2.7767257237e-02 +2.1918743206e+01 2.1918788222e+01 4.9935713700e-03 0.0000e+00 0.0000e+00
       11 -1    0    0    0    0 +9.1246719660e-19 -7.3839030799e-19 +5.8286590600e-16 5.1100000000e-04 5.1099893000e-04 0.0000e+00 1.0000e+00
       50  1    1    2    0    0 +3.7451453630e-02 -1.6037431318e-02 +2.1776253168e+01 2.1776291852e+01 4.9935713700e-03 0.0000e+00 0.0000e+00
       11  1    1    2    0    0 -3.1380138483e-03 -1.1729825919e-02 +1.4249003757e-01 1.4300736999e-01 5.1099893000e-04 0.0000e+00 1.0000e+00
<vert_displacement>
420.82752685719549
</vert_displacement>
</event>
<event>
 4   1200 +8.5212000e+10 2.47458300e-02 7.81665300e-03            nan
       50 -1    0    0    0    0 +6.3315370120e-02 +4.9033057657e-02 +1.9667072567e+01 1.9667236242e+01 4.9935713700e-03 0.0000e+00 0.0000e+00
       11 -1    0    0    0    0 +3.1274048998e-19 +2.4219431155e-19 +9.7143709332e-17 5.1100000000e-04 5.1099893000e-04 0.0000e+00 1.0000e+00
       50  1    1    2    0    0 +6.1073044819e-02 +2.3321073739e-02 +1.9074466624e+01 1.9074579307e+01 4.9935713700e-03 0.0000e+00 0.0000e+00
       11  1    1    2    0    0 +2.2423253009e-03 +2.5711983918e-02 +5.9260594302e-01 5.9316793487e-01 5.1099893000e-04 0.0000e+00 1.0000e+00
<vert_displacement>
203.17415940200573
</vert_displacement>
</event>
<event>
 4   1200 +8.5212000e+10 3.85283000e-02 7.81665300e-03            nan
       50 -1    0    0    0    0 +1.1595468537e-02 -1.5131790008e-02 +5.8003495759e+00 5.8003830533e+00 4.9935713700e-03 0.0000e+00 0.0000e+00
       11 -1    0    0    0    0 -1.5397315673e-18 +2.0093103328e-18 -7.7021306339e-16 5.1100000000e-04 5.1099893000e-04 0.0000e+00 1.0000e+00
       50  1    1    2    0    0 +3.3517054804e-02 -3.5324780421e-02 +3.2149562588e+00 3.2153288969e+00 4.9935713700e-03 0.0000e+00 0.0000e+00
       11  1    1    2    0    0 -2.1921586267e-02 +2.0192990413e-02 +2.5853933171e+00 2.5855651564e+00 5.1099893000e-04 0.0000e+00 1.0000e+00
<vert_displacement>
55.365198683296292
</vert_displacement>
</event>
<event>
 4   1200 +8.5212000e+10 1.03878700e-02 7.81665300e-03            nan
       50 -1    0    0    0    0 +1.0205898726e-02 +4.2859999357e-03 +4.7638164720e+00 4.7638319497e+00 4.9935713700e-03 0.0000e+00 0.0000e+00
       11 -1    0    0    0    0 -1.0554645621e-18 -4.4324573138e-19 -4.9266013718e-16 5.1100000000e-04 5.1099893000e-04 0.0000e+00 1.0000e+00
       50  1    1    2    0    0 +4.3447233750e-03 +1.1329413302e-02 +4.6811871306e+00 4.6812055199e+00 4.9935713700e-03 0.0000e+00 0.0000e+00
       11  1    1    2    0    0 +5.8611753514e-03 -7.0434133667e-03 +8.2629341377e-02 8.3137429746e-02 5.1099893000e-04 0.0000e+00 1.0000e+00
<vert_displacement>
472.38686056892465
</vert_displacement>
</event>
<event>
 4   1200 +8.5212000e+10 9.21223000e-03 7.81665300e-03            nan
       50 -1    0    0    0    0 -1.5277109630e-02 +4.5581674220e-02 +1.8814000223e+01 1.8814062305e+01 4.9935713700e-03 0.0000e+00 0.0000e+00
       11 -1    0    0    0    0 -5.9724805620e-19 +1.7819840916e-18 +7.3552035268e-16 5.1100000000e-04 5.1099893000e-04 0.0000e+00 1.0000e+00
       50  1    1    2    0    0 -1.6736286268e-02 +5.3032453420e-02 +1.8755155677e+01 1.8755238787e+01 4.9935713700e-03 0.0000e+00 0.0000e+00
       11  1    1    2    0    0 +1.4591766387e-03 -7.4507792006e-03 +5.8844546266e-02 5.9334518220e-02 5.1099893000e-04 0.0000e+00 1.0000e+00
<vert_displacement>
385.21060930885267
</vert_displacement>
</event>
<event>
 4   1200 +8.5212000e+10 1.79501500e-02 7.81665300e-03            nan
       50 -1    0    0    0    0 -9.5478891600e-04 +8.3773093710e-04 +2.3536858894e+00 2.3536915294e+00 4.9935713700e-03 0.0000e+00 0.0000e+00
       11 -1    0    0    0    0 -7.1777648993e-20 +6.2977644740e-20 +1.7694176878e-16 5.1100000000e-04 5.1099893000e-04 0.0000e+00 1.0000e+00
       50  1    1    2    0    0 +1.3454433464e-03 +1.7821927034e-02 +2.0128969891e+00 2.0129825275e+00 4.9935713700e-03 0.0000e+00 0.0000e+00
       11  1    1    2    0    0 -2.3002322624e-03 -1.6984196097e-02 +3.4078890030e-01 3.4122000187e-01 5.1099893000e-04 0.0000e+00 1.0000e+00
<vert_displacement>
441.60071485452971
</vert_displacement>
</event>
<event>
 4   1200 +8.5212000e+10 7.32815300e-03 7.81665300e-03            nan
       50 -1    0    0    0    0 +1.5484988051e-02 +6.3533766002e-02 +2.4899590548e+01 2.4899676920e+01 4.9935713700e-03 0.0000e+00 0.0000e+00
       11 -1    0    0    0    0 -8.6305289581e-20 -3.5410424953e-19 -1.3877739948e-16 5.1100000000e-04 5.1099893000e-04 0.0000e+00 1.0000e+00
       50  1    1    2    0    0 +1.2326001768e-02 +5.9114782568e-02 +2.4871424354e+01 2.4871498162e+01 4.9935713700e-03 0.0000e+00 0.0000e+00
       11  1    1    2    0    0 +3.1589862836e-03 +4.4189834335e-03 +2.8166193505e-02 2.8689757500e-02 5.1099893000e-04 0.0000e+00 1.0000e+00
<vert_displacement>
86.699494205719759
</vert_displacement>
</event>
<event>
 4   1200 +8.5212000e+10 1.34076600e-02 7.81665300e-03            nan
       50 -1    0    0    0    0 +1.7611171548e-02 -1.2168265118e-02 +1.8607611658e+01 1.8607624641e+01 4.9935713700e-03 0.0000e+00 0.0000e+00
       11 -1    0    0    0    0 -1.5498853619e-18 +1.0708779898e-18 -1.6375778777e-15 5.1100000000e-04 5.1099893000e-04 0.0000e+00 1.0000e+00
       50  1    1    2    0    0 +1.3803918411e-02 -1.7659301755e-04 +1.8454866384e+01 1.8454872223e+01 4.9935713700e-03 0.0000e+00 0.0000e+00
       11  1    1    2    0    0 +3.8072531377e-03 -1.1991672101e-02 +1.5274527449e-01 1.5326341825e-01 5.1099893000e-04 0.0000e+00 1.0000e+00
<vert_displacement>
271.29012416193427
</vert_displacement>
</event>
<event>
 4   1200 +8.5212000e+10 9.70017500e-03 7.81665300e-03            nan
       50 -1    0    0    0    0 -1.6027488407e-02 +2.3095299266e-02 +1.0303493851e+01 1.0303533411e+01 4.9935713700e-03 0.0000e+00 0.0000e+00
       11 -1    0    0    0    0 -1.9536562935e-18 +2.8151807455e-18 +1.2559351220e-15 5.1100000000e-04 5.1099893000e-04 0.0000e+00 1.0000e+00
       50  1    1    2    0    0 -2.0124156752e-02 +3.0118600146e-02 +1.0235347723e+01 1.0235413038e+01 4.9935713700e-03 0.0000e+00 0.0000e+00
       11  1    1    2    0    0 +4.0966683453e-03 -7.0233008796e-03 +6.8146128084e-02 6.8631372852e-02 5.1099893000e-04 0.0000e+00 1.0000e+00
<vert_displacement>
234.84619944721007
</vert_displacement>
</event>
<event>
 4   1200 +8.5212000e+10 6.58201100e-03 7.81665300e-03            nan
       50 -1    0    0    0    0 +5.1357780239e-02 +6.8040284119e-03 +3.1218001473e+01 3.1218044859e+01 4.9935713700e-03 0.0000e+00 0.0000e+00
       11 -1    0    0    0    0 +3.4474481251e-18 +4.5672797544e-19 +2.0955430735e-15 5.1100000000e-04 5.1099893000e-04 0.0000e+00 1.0000e+00
       50  1    1    2    0    0 +5.5391642071e-02 +8.1694910547e-03 +3.1199992524e+01 3.1200043164e+01 4.9935713700e-03 0.0000e+00 0.0000e+00
       11  1    1    2    0    0 -4.0338618320e-03 -1.3654626428e-03 +1.8008948953e-02 1.8512695423e-02 5.1099893000e-04 0.0000e+00 1.0000e+00
<vert_displacement>
78.006591028025852
</vert_displacement>
</event>
<event>
 4   1200 +8.5212000e+10 6.30146700e-03 7.81665300e-03            nan
       50 -1    0    0    0    0 +1.4392953263e-02 +1.5776510472e-02 +6.2576826636e+00 6.2577210955e+00 4.9935713700e-03 0.0000e+00 0.0000e+00
       11 -1    0    0    0    0 -1.0373790052e-18 -1.1370995541e-18 -4.5102547736e-16 5.1100000000e-04 5.1099893000e-04 0.0000e+00 1.0000e+00
       50  1    1    2    0    0 +1.0798848440e-02 +1.7186897442e-02 +6.2431976986e+00 6.2432326919e+00 4.9935713700e-03 0.0000e+00 0.0000e+00
       11  1    1    2    0    0 +3.5941048234e-03 -1.4103869703e-03 +1.4484964952e-02 1.4999403670e-02 5.1099893000e-04 0.0000e+00 1.0000e+00
<vert_displacement>
128.80546353900414
</vert_displacement>
</event>
<event>
 4   1200 +8.5212000e+10 1.19296400e-02 7.81665300e-03            nan
       50 -1    0    0    0    0 +1.0623714839e-03 +4.0335038572e-03 +2.6020479011e+00 2.6020560358e+00 4.9935713700e-03 0.0000e+00 0.0000e+00
       11 -1    0    0    0    0 +1.9831193258e-20 +7.5293054939e-20 +4.8572194922e-17 5.1100000000e-04 5.1099893000e-04 0.0000e+00 1.0000e+00
       50  1    1    2    0    0 -9.8137338568e-03 +4.2449451111e-03 +2.4815424662e+00 2.4815705262e+00 4.9935713700e-03 0.0000e+00 0.0000e+00
       11  1    1    2    0    0 +1.0876105341e-02 -2.1144125388e-04 +1.2050543491e-01 1.2099650960e-01 5.1099893000e-04 0.0000e+00 1.0000e+00
<vert_displacement>
374.99818701558843
</vert_displacement>
</event>
<event>
 4   1200 +8.5212000e+10 1.38746100e-02 7.81665300e-03            nan
       50 -1    0    0    0    0 -1.9899978981e-02 +9.6009230915e-03 +6.1388561356e+00 6.1388979285e+00 4.9935713700e-03 0.0000e+00 0.0000e+00
       11 -1    0    0    0    0 +2.7441789383e-18 -1.3239537067e-18 -8.4653957317e-16 5.1100000000e-04 5.1099893000e-04 0.0000e+00 1.0000e+00
       50  1    1    2    0    0 -3.1245988785e-02 +4.2251043324e-03 +5.9702009029e+00 5.9702862511e+00 4.9935713700e-03 0.0000e+00 0.0000e+00
       11  1    1    2    0    0 +1.1346009804e-02 +5.3758187591e-03 +1.6865523271e-01 1.6912267739e-01 5.1099893000e-04 0.0000e+00 1.0000e+00
<vert_displacement>
196.09842058348184
</vert_displacement>
</event>
<event>
 4   1200 +8.5212000e+10 1.38288900e-02 7.81665300e-03            nan
       50 -1    0    0    0    0 +2.5808535502e-03 -9.9198521222e-05 +7.8851956660e+00 7.8851976702e+00 4.9935713700e-03 0.0000e+00 0.0000e+00
       11 -1    0    0    0    0 +1.8169003043e-20 -6.9834967340e-22 +5.5511148253e-17 5.1100000000e-04 5.1099893000e-04 0.0000e+00 1.0000e+00
       50  1    1    2    0    0 +2.3526521324e-03 -1.2991770175e-02 +7.7189464743e+00 7.7189593813e+00 4.9935713700e-03 0.0000e+00 0.0000e+00
       11  1    1    2    0    0 +2.2820141781e-04 +1.2892571654e-02 +1.6624919174e-01 1.6674928891e-01 5.1099893000e-04 0.0000e+00 1.0000e+00
<vert_displacement>
188.11802085056439
</vert_displacement>
</event>
<event>
 4   1200 +8.5212000e+10 2.25162100e-02 7.81665300e-03            nan
       50 -1    0    0    0    0 -6.6980098458e-02 -3.7606669484e-02 +2.5365121231e+01 2.5365238036e+01 4.9935713700e-03 0.0000e+00 0.0000e+00
       11 -1    0    0    0    0 -1.6857179925e-18 -9.4646381309e-19 +6.3837531186e-16 5.1100000000e-04 5.1099893000e-04 0.0000e+00 1.0000e+00
       50  1    1    2    0    0 -4.3790634991e-02 -3.8143218666e-02 +2.4884380341e+01 2.4884448606e+01 4.9935713700e-03 0.0000e+00 0.0000e+00
       11  1    1    2    0    0 -2.3189463467e-02 +5.3654918175e-04 +4.8074089020e-01 4.8130042981e-01 5.1099893000e-04 0.0000e+00 1.0000e+00
<vert_displacement>
253.36155245857756
</vert_displacement>
</event>
<event>
 4   1200 +8.5212000e+10 1.31059900e-02 7.81665300e-03            nan
       50 -1    0    0    0    0 +1.0072368449e-01 +8.5569529389e-02 +3.7592685821e+01 3.7592918476e+01 4.9935713700e-03 0.0000e+00 0.0000e+00
       11 -1    0    0    0    0 +2.0078883853e-18 +1.7057960604e-18 +7.4939591034e-16 5.1100000000e-04 5.1099893000e-04 0.0000e+00 1.0000e+00
       50  1    1    2    0    0 +1.0715377427e-01 +7.5222940564e-02 +3.7448465102e+01 3.7448694287e+01 4.9935713700e-03 0.0000e+00 0.0000e+00
       11  1    1    2    0    0 -6.4300897743e-03 +1.0346588825e-02 +1.4422071951e-01 1.4473518926e-01 5.1099893000e-04 0.0000e+00 1.0000e+00
<vert_displacement>
110.85721069622896
</vert_displacement>
</event>
<event>
 4   1200 +8.5212000e+10 1.79218200e-02 7.81665300e-03            nan
       50 -1    0    0    0    0 +2.8771538858e-02 -1.1804183696e-02 +1.4693666368e+01 1.4693700127e+01 4.9935713700e-03 0.0000e+00 0.0000e+00
       11 -1    0    0    0    0 -1.4402174082e-18 +5.9088222334e-19 -7.3552110643e-16 5.1100000000e-04 5.1099893000e-04 0.0000e+00 1.0000e+00
       50  1    1    2    0    0 +1.1108211779e-02 -9.4710572066e-03 +1.4397846832e+01 1.4397855098e+01 4.9935713700e-03 0.0000e+00 0.0000e+00
       11  1    1    2    0    0 +1.7663327079e-02 -2.3331264896e-03 +2.9581953601e-01 2.9635602846e-01 5.1099893000e-04 0.0000e+00 1.0000e+00
<vert_displacement>
82.411630257916130
</vert_displacement>
</event>
<event>
 4   1200 +8.5212000e+10 9.92513700e-03 7.81665300e-03            nan
       50 -1    0    0    0    0 +5.1012792590e-03 -7.3732844158e-03 +3.4616608687e+00 3.4616760816e+00 4.9935713700e-03 0.0000e+00 0.0000e+00
       11 -1    0    0    0    0 -2.5052406779e-19 +3.6210234944e-19 -1.7000233042e-16 5.1100000000e-04 5.1099893000e-04 0.0000e+00 1.0000e+00
       50  1    1    2    0    0 -2.3490066325e-03 -1.1651619084e-02 +3.3880882996e+00 3.3881128287e+00 4.9935713700e-03 0.0000e+00 0.0000e+00
       11  1    1    2    0    0 +7.4502858915e-03 +4.2783346684e-03 +7.3572569071e-02 7.4074252929e-02 5.1099893000e-04 0.0000e+00 1.0000e+00
<vert_displacement>
75.253828458441902
</vert_displacement>
</event>
<event>
 4   1200 +8.5212000e+10 1.77404300e-02 7.81665300e-03            nan
       50 -1    0    0    0    0 +2.6470485693e-02 +2.2467115091e-03 +8.2995957422e+00 8.2996397605e+00 4.9935713700e-03 0.0000e+00 0.0000e+00
       11 -1    0    0    0    0 +3.7179391273e-18 +3.1556416170e-19 +1.1657282042e-15 5.1100000000e-04 5.1099893000e-04 0.0000e+00 1.0000e+00
       50  1    1    2    0    0 +2.4992508785e-02 -1.4847430986e-02 +8.0055916109e+00 8.0056459482e+00 4.9935713700e-03 0.0000e+00 0.0000e+00
       11  1    1    2    0    0 +1.4779769074e-03 +1.7094142495e-02 +2.9400413132e-01 2.9450481231e-01 5.1099893000e-04 0.0000e+00 1.0000e+00
<vert_displacement>
221.37355957373941
</vert_displacement>
</event>
<event>
 4   1200 +8.5212000e+10 9.58794400e-03 7.81665300e-03            nan
       50 -1    0    0    0    0 -6.1608163477e-02 -6.7387884598e-02 +2.8995988597e+01 2.8996132782e+01 4.9935713700e-03 0.0000e+00 0.0000e+00
       11 -1    0    0    0    0 -6.7228477986e-18 -7.3535464467e-18 +3.1641199332e-15 5.1100000000e-04 5.1099893000e-04 0.0000e+00 1.0000e+00
       50  1    1    2    0    0 -5.4120512073e-02 -7.0840595554e-02 +2.8930295217e+01 2.8930433002e+01 4.9935713700e-03 0.0000e+00 0.0000e+00
       11  1    1    2    0    0 -7.4876514039e-03 +3.4527109559e-03 +6.5693379782e-02 6.6210780116e-02 5.1099893000e-04 0.0000e+00 1.0000e+00
<vert_displacement>
274.55790859314902
</vert_displacement>
</event>
<event>
 4   1200 +8.5212000e+10 8.97686900e-03 7.81665300e-03            nan
       50 -1    0    0    0    0 -4.5492570494e-02 -4.8313197007e-02 +3.0533941406e+01 3.0534013926e+01 4.9935713700e-03 0.0000e+00 0.0000e+00
       11 -1    0    0    0    0 +1.7988546727e-18 +1.9103871081e-18 -1.2073646878e-15 5.1100000000e-04 5.1099893000e-04 0.0000e+00 1.0000e+00
       50  1    1    2    0    0 -3.8161639759e-02 -4.6468851788e-02 +3.0479406175e+01 3.0479465898e+01 4.9935713700e-03 0.0000e+00 0.0000e+00
       11  1    1    2    0    0 -7.3309307358e-03 -1.8443452184e-03 +5.4535230462e-02 5.5059028653e-02 5.1099893000e-04 0.0000e+00 1.0000e+00
<vert_displacement>
111.81589546495644
</vert_displacement>
</event>
<event>
 4   1200 +8.5212000e+10 5.29950900e-03 7.81665300e-03            nan
       50 -1    0    0    0    0 +3.0542850159e-02 +1.3335836726e-02 +1.0174310685e+01 1.0174366495e+01 4.9935713700e-03 0.0000e+00 0.0000e+00
       11 -1    0    0    0    0 +3.5411262028e-19 +1.5461517383e-19 +1.1796056352e-16 5.1100000000e-04 5.1099893000e-04 0.0000e+00 1.0000e+00
       50  1    1    2    0    0 +3.2238025583e-02 +1.2837886058e-02 +1.0171223886e+01 1.0171284303e+01 4.9935713700e-03 0.0000e+00 0.0000e+00
       11  1    1    2    0    0 -1.6951754238e-03 +4.9795066740e-04 +3.0867990700e-03 3.5931911986e-03 5.1099893000e-04 0.0000e+00 1.0000e+00
<vert_displacement>
384.39009176915437
</vert_displacement>
</event>
<event>
 4   1200 +8.5212000e+10 8.09652400e-03 7.81665300e-03            nan
       50 -1    0    0    0    0 +6.3431533013e-02 -1.1940128022e-02 +3.3978937425e+01 3.3978999096e+01 4.9935713700e-03 0.0000e+00 0.0000e+00
       11 -1    0    0    0    0 -9.5855402957e-18 +1.8043482926e-18 -5.1347722248e-15 5.1099999999e-04 5.1099893000e-04 0.0000e+00 1.0000e+00
       50  1    1    2    0    0 +6.7378690529e-02 -1.6870424198e-02 +3.3939137441e+01 3.3939208884e+01 4.9935713700e-03 0.0000e+00 0.0000e+00
       11  1    1    2    0    0 -3.9471575159e-03 +4.9302961760e-03 +3.9799984020e-02 4.0301212398e-02 5.1099893000e-04 0.0000e+00 1.0000e+00
<vert_displacement>
272.13458641216681
</vert_displacement>
</event>
<event>
 4   1200 +8.5212000e+10 1.69622500e-02 7.81665300e-03            nan
       50 -1    0    0    0    0 +2.5418091434e-03 +9.2339121599e-03 +6.1862938329e+00 6.1863032619e+00 4.9935713700e-03 0.0000e+00 0.0000e+00
       11 -1    0    0    0    0 -1.7676399557e-19 -6.4215018361e-19 -4.3021090648e-16 5.1100000000e-04 5.1099893000e-04 0.0000e+00 1.0000e+00
       50  1    1    2    0    0 +1.8584853305e-02 +1.0191184540e-02 +5.9174067775e+00 5.9174468450e+00 4.9935713700e-03 0.0000e+00 0.0000e+00
       11  1    1    2    0    0 -1.6043044161e-02 -9.5727238010e-04 +2.6888705538e-01 2.6936741694e-01 5.1099893000e-04 0.0000e+00 1.0000e+00
<vert_displacement>
242.66504519946690
</vert_displacement>
</event>
<event>
 4   1200 +8.5212000e+10 1.87747700e-02 7.81665300e-03            nan
       50 -1    0    0    0    0 +1.2593851263e-02 +1.4853512394e-02 +6.5405735544e+00 6.5406044513e+00 4.9935713700e-03 0.0000e+00 0.0000e+00
       11 -1    0    0    0    0 -6.0123404104e-19 -7.0911090612e-19 -3.1224884165e-16 5.1100000000e-04 5.1099893000e-04 0.0000e+00 1.0000e+00
       50  1    1    2    0    0 -1.2113195912e-03 +2.6516481397e-02 +6.2025034044e+00 6.2025622132e+00 4.9935713700e-03 0.0000e+00 0.0000e+00
       11  1    1    2    0    0 +1.3805170854e-02 -1.1662969003e-02 +3.3807014999e-01 3.3855323809e-01 5.1099893000e-04 0.0000e+00 1.0000e+00
<vert_displacement>
139.67830759153208
</vert_displacement>
</event>
<event>
 4   1200 +8.5212000e+10 5.79131800e-03 7.81665300e-03            nan
       50 -1    0    0    0    0 -6.0628808786e-02 +5.2796528391e-03 +2.9350907148e+01 2.9350970667e+01 4.9935713700e-03 0.0000e+00 0.0000e+00
       11 -1    0    0    0    0 -8.0266596368e-19 +6.9897425314e-20 +3.8857722332e-16 5.1100000000e-04 5.1099893000e-04 0.0000e+00 1.0000e+00
       50  1    1    2    0    0 -5.8081961006e-02 +6.7632155974e-03 +2.9342491153e+01 2.9342549843e+01 4.9935713700e-03 0.0000e+00 0.0000e+00
       11  1    1    2    0    0 -2.5468477797e-03 -1.4835627583e-03 +8.4159950751e-03 8.9318242863e-03 5.1099893000e-04 0.0000e+00 1.0000e+00
<vert_displacement>
420.63997211027493
</vert_displacement>
</event>
<event>
 4   1200 +8.5212000e+10 7.97923800e-03 7.81665300e-03            nan
       50 -1    0    0    0    0 +8.4695879486e-03 -1.5862016490e-02 +1.1005887697e+01 1.1005903519e+01 4.9935713700e-03 0.0000e+00 0.0000e+00
       11 -1    0    0    0    0 +2.4563186422e-19 -4.6002434882e-19 +3.1918869357e-16 5.1100000000e-04 5.1099893000e-04 0.0000e+00 1.0000e+00
       50  1    1    2    0    0 +5.2313945360e-03 -1.0474739001e-02 +1.0967865714e+01 1.0967873100e+01 4.9935713700e-03 0.0000e+00 0.0000e+00
       11  1    1    2    0    0 +3.2381934125e-03 -5.3872774891e-03 +3.8021982769e-02 3.8541418616e-02 5.1099893000e-04 0.0000e+00 1.0000e+00
<vert_displacement>
81.677180762533283
</vert_displacement>
</event>
<event>
 4   1200 +8.5212000e+10 2.34963600e-02 7.81665300e-03            nan
       50 -1    0    0    0    0 -2.5448799569e-03 -8.5591853070e-03 +4.5321633759e+00 4.5321749235e+00 4.9935713700e-03 0.0000e+00 0.0000e+00
       11 -1    0    0    0    0 +1.5974784391e-19 +5.3727933009e-19 -2.8449409787e-16 5.1100000000e-04 5.1099893000e-04 0.0000e+00 1.0000e+00
       50  1    1    2    0    0 -2.5145906263e-02 -8.5068074905e-03 +3.9379865565e+00 3.9380791939e+00 4.9935713700e-03 0.0000e+00 0.0000e+00
       11  1    1    2    0    0 +2.2601026306e-02 -5.2377816484e-05 +5.9417681941e-01 5.9460672968e-01 5.1099893000e-04 0.0000e+00 1.0000e+00
<vert_displacement>
190.97262434691336
</vert_displacement>
</event>
<event>
 4   1200 +8.5212000e+10 7.04724300e-03 7.81665300e-03            nan
       50 -1    0    0    0    0 -1.7596322196e-03 -3.9137030928e-03 +1.9559390408e+00 1.9559501221e+00 4.9935713700e-03 0.0000e+00 0.0000e+00
       11 -1    0    0    0    0 +4.0575992238e-20 +9.0247487260e-20 -4.5102701834e-17 5.1100000000e-04 5.1099893000e-04 0.0000e+00 1.0000e+00
       50  1    1    2    0    0 -6.7095508823e-03 -3.7788599323e-03 +1.9314218224e+00 1.9314436284e+00 4.9935713700e-03 0.0000e+00 0.0000e+00
       11  1    1    2    0    0 +4.9499186628e-03 -1.3484316047e-04 +2.4517218331e-02 2.5017493721e-02 5.1099893000e-04 0.0000e+00 1.0000e+00
<vert_displacement>
428.30471949268502
</vert_displacement>
</event>
<event>
 4   1200 +8.5212000e+10 2.71344500e-02 7.81665300e-03            nan
       50 -1    0    0    0    0 -1.1317980830e-03 +1.4074616205e-02 +8.7059154095e+00 8.7059282922e+00 4.9935713700e-03 0.0000e+00 0.0000e+00
       11 -1    0    0    0    0 -2.7062345956e-20 +3.3653717801e-19 +2.0816654332e-16 5.1100000000e-04 5.1099893000e-04 0.0000e+00 1.0000e+00
       50  1    1    2    0    0 -2.0842452626e-02 -5.0172408874e-03 +7.9427886219e+00 7.9428191222e+00 4.9935713700e-03 0.0000e+00 0.0000e+00
       11  1    1    2    0    0 +1.9710654543e-02 +1.9091857092e-02 +7.6312678767e-01 7.6362017004e-01 5.1099893000e-04 0.0000e+00 1.0000e+00
<vert_displacement>
149.28274119740337
</vert_displacement>
</event>
<event>
 4   1200 +8.5212000e+10 1.67543800e-02 7.81665300e-03            nan
       50 -1    0    0    0    0 +3.9855010172e-03 -4.9906938496e-03 +4.3013875470e+00 4.3013951872e+00 4.9935713700e-03 0.0000e+00 0.0000e+00
       11 -1    0    0    0    0 -3.7289976772e-19 +4.6694971831e-19 -4.0245540278e-16 5.1100000000e-04 5.1099893000e-04 0.0000e+00 -1.0000e+00
       50  1    1    2    0    0 -3.0581233823e-03 -1.9157976980e-02 +4.0344183835e+00 4.0344681197e+00 4.9935713700e-03 0.0000e+00 0.0000e+00
       11  1    1    2    0    0 +7.0436243995e-03 +1.4167283130e-02 +2.6696916346e-01 2.6743806743e-01 5.1099893000e-04 0.0000e+00 -1.0000e+00
<vert_displacement>
261.25880073372548
</vert_displacement>
</event>
<event>
 4   1200 +8.5212000e+10 1.05787700e-02 7.81665300e-03            nan
       50 -1    0    0    0    0 -6.0759820494e-03 -1.7374390630e-02 +1.7295302497e+01 1.7295313012e+01 4.9935713700e-03 0.0000e+00 0.0000e+00
       11 -1    0    0    0    0 -1.0628324615e-18 -3.0391904072e-18 +3.0253560289e-15 5.1100000000e-04 5.1099893000e-04 0.0000e+00 1.0000e+00
       50  1    1    2    0    0 +2.0495169938e-03 -2.1918614616e-02 +1.7209772351e+01 1.7209787155e+01 4.9935713700e-03 0.0000e+00 0.0000e+00
       11  1    1    2    0    0 -8.1254990432e-03 +4.5442239867e-03 +8.5530146351e-02 8.6036856992e-02 5.1099893000e-04 0.0000e+00 1.0000e+00
<vert_displacement>
66.615559631632863
</vert_displacement>
</event>
<event>
 4   1200 +8.5212000e+10 1.87230300e-02 7.81665300e-03            nan
       50 -1    0    0    0    0 +2.3366798112e-02 -4.6002055949e-02 +1.8220116829e+01 1.8220190570e+01 4.9935713700e-03 0.0000e+00 0.0000e+00
       11 -1    0    0    0    0 -5.1613647122e-19 +1.0161143479e-18 -4.0245423272e-16 5.1100000000e-04 5.1099893000e-04 0.0000e+00 1.0000e+00
       50  1    1    2    0    0 +1.8621057281e-02 -2.7665391909e-02 +1.7895768845e+01 1.7895800614e+01 4.9935713700e-03 0.0000e+00 0.0000e+00
       11  1    1    2    0    0 +4.7457408314e-03 -1.8336664040e-02 +3.2434798474e-01 3.2490095664e-01 5.1099893000e-04 0.0000e+00 1.0000e+00
<vert_displacement>
70.076254848787627
</vert_displacement>
</event>
<event>
 4   1200 +8.5212000e+10 1.86321000e-02 7.81665300e-03            nan
       50 -1    0    0    0    0 -3.6960301003e-02 -4.7219707932e-03 +1.3527300874e+01 1.3527353113e+01 4.9935713700e-03 0.0000e+00 0.0000e+00
       11 -1    0    0    0    0 -1.3271224301e-18 -1.6955038741e-19 +4.8572073065e-16 5.1100000000e-04 5.1099893000e-04 0.0000e+00 1.0000e+00
       50  1    1    2    0    0 -4.5980043372e-02 +1.0362855901e-02 +1.3204257898e+01 1.3204342965e+01 4.9935713700e-03 0.0000e+00 0.0000e+00
       11  1    1    2    0    0 +9.0197423692e-03 -1.5084826694e-02 +3.2304297604e-01 3.2352114805e-01 5.1099893000e-04 0.0000e+00 1.0000e+00
<vert_displacement>
191.26151042750621
</vert_displacement>
</event>
<event>
 4   1200 +8.5212000e+10 1.38112800e-02 7.81665300e-03            nan
       50 -1    0    0    0    0 +1.6169958471e-02 +1.2163215046e-02 +5.2278630939e+00 5.2279046352e+00 4.9935713700e-03 0.0000e+00 0.0000e+00
       11 -1    0    0    0    0 +1.2877244549e-19 +9.6864005512e-20 +4.1633051593e-17 5.1100000000e-04 5.1099893000e-04 0.0000e+00 1.0000e+00
       50  1    1    2    0    0 +1.3506460053e-02 -9.2386401944e-04 +5.0602364490e+00 5.0602570225e+00 4.9935713700e-03 0.0000e+00 0.0000e+00
       11  1    1    2    0    0 +2.6634984174e-03 +1.3087079065e-02 +1.6762664484e-01 1.6815861276e-01 5.1099893000e-04 0.0000e+00 1.0000e+00
<vert_displacement>
108.50718677017119
</vert_displacement>
</event>
<event>
 4   1200 +8.5212000e+10 1.03727900e-02 7.81665300e-03            nan
       50 -1    0    0    0    0 +3.1004895459e-03 +8.1020603758e-03 +6.3183025812e+00 6.3183105099e+00 4.9935713700e-03 0.0000e+00 0.0000e+00
       11 -1    0    0    0    0 +9.8745584938e-20 +2.5803753864e-19 +2.0122773354e-16 5.1100000000e-04 5.1099893000e-04 0.0000e+00 1.0000e+00
       50  1    1    2    0    0 +1.2056813682e-02 +9.3089392716e-03 +6.2363432613e+00 6.2363638630e+00 4.9935713700e-03 0.0000e+00 0.0000e+00
       11  1    1    2    0    0 -8.9563241365e-03 -1.2068788958e-03 +8.1959319885e-02 8.2457646915e-02 5.1099893000e-04 0.0000e+00 1.0000e+00
<vert_displacement>
65.281743248839291
</vert_displacement>
</event>
<event>
 4   1200 +8.5212000e+10 3.24857500e-02 7.81665300e-03            nan
       50 -1    0    0    0    0 +5.6930190313e-02 +3.3411959687e-04 +1.7775091380e+01 1.7775183252e+01 4.9935713700e-03 0.0000e+00 0.0000e+00
       11 -1    0    0    0    0 +5.9115375122e-18 +3.4694430488e-20 +1.8457363114e-15 5.1100000000e-04 5.1099893000e-04 0.0000e+00 1.0000e+00
       50  1    1    2    0    0 +2.8248292119e-02 -1.9512144319e-02 +1.6702068532e+01 1.6702104564e+01 4.9935713700e-03 0.0000e+00 0.0000e+00
       11  1    1    2    0    0 +2.8681898193e-02 +1.9846263916e-02 +1.0730228478e+00 1.0735896881e+00 5.1099893000e-04 0.0000e+00 1.0000e+00
<vert_displacement>
147.88184914538138
</vert_displacement>
</event>
<event>
 4   1200 +8.5212000e+10 1.76029700e-02 7.81665300e-03            nan
       50 -1    0    0    0    0 +1.7446324003e-02 -1.5728375861e-02 +6.1806928735e+00 6.1807395260e+00 4.9935713700e-03 0.0000e+00 0.0000e+00
       11 -1    0    0    0    0 +4.1131370051e-19 -3.7081143725e-19 +1.4571571966e-16 5.1100000000e-04 5.1099893000e-04 0.0000e+00 1.0000e+00
       50  1    1    2    0    0 +5.2257077480e-05 -1.1753118308e-02 +5.8880126779e+00 5.8880265258e+00 4.9935713700e-03 0.0000e+00 0.0000e+00
       11  1    1    2    0    0 +1.7394066925e-02 -3.9752575528e-03 +2.9268019566e-01 2.9322400019e-01 5.1099893000e-04 0.0000e+00 1.0000e+00
<vert_displacement>
213.38958169244486
</vert_displacement>
</event>
<event>
 4   1200 +8.5212000e+10 5.94850100e-03 7.81665300e-03            nan
       50 -1    0    0    0    0 -1.3620768108e-02 -9.6772860108e-03 +5.3987784026e+00 5.3988065673e+00 4.9935713700e-03 0.0000e+00 0.0000e+00
       11 -1    0    0    0    0 +7.7027701917e-19 +5.4726656843e-19 -3.0530986961e-16 5.1100000000e-04 5.1099893000e-04 0.0000e+00 1.0000e+00
       50  1    1    2    0    0 -1.0666537661e-02 -1.1027664575e-02 +5.3885389033e+00 5.3885630583e+00 4.9935713700e-03 0.0000e+00 0.0000e+00
       11  1    1    2    0    0 -2.9542304476e-03 +1.3503785647e-03 +1.0239499236e-02 1.0754509022e-02 5.1099893000e-04 0.0000e+00 1.0000e+00
<vert_displacement>
256.96898381866140
</vert_displacement>
</event>
<event>
 4   1200 +8.5212000e+10 1.52258400e-02 7.81665300e-03            nan
       50 -1    0    0    0    0 -2.4940452879e-03 +4.8627198593e-03 +2.8454464853e+00 2.8454561151e+00 4.9935713700e-03 0.0000e+00 0.0000e+00
       11 -1    0    0    0    0 -1.8245871586e-19 +3.5574559349e-19 +2.0816643318e-16 5.1100000000e-04 5.1099893000e-04 0.0000e+00 -1.0000e+00
       50  1    1    2    0    0 -1.6683657120e-02 +4.7036705928e-03 +2.6258753071e+00 2.6259372675e+00 4.9935713700e-03 0.0000e+00 0.0000e+00
       11  1    1    2    0    0 +1.4189611832e-02 +1.5904926655e-04 +2.1957117826e-01 2.2002984757e-01 5.1099893000e-04 0.0000e+00 -1.0000e+00
<vert_displacement>
235.37500401290302
</vert_displacement>
</event>
<event>
 4   1200 +8.5212000e+10 1.45964200e-02 7.81665300e-03            nan
       50 -1    0    0    0    0 -1.1826396863e-02 +2.0753306851e-02 +1.4142680766e+01 1.4142701819e+01 4.9935713700e-03 0.0000e+00 0.0000e+00
       11 -1    0    0    0    0 -1.0328335581e-18 +1.8124465132e-18 +1.2351213532e-15 5.1100000000e-04 5.1099893000e-04 0.0000e+00 1.0000e+00
       50  1    1    2    0    0 -2.2173131991e-02 +2.9300677106e-02 +1.3956117924e+01 1.3956167189e+01 4.9935713700e-03 0.0000e+00 0.0000e+00
       11  1    1    2    0    0 +1.0346735128e-02 -8.5473702544e-03 +1.8656284260e-01 1.8704563033e-01 5.1099893000e-04 0.0000e+00 1.0000e+00
<vert_displacement>
62.732473083862509
</vert_displacement>
</event>
<event>
 4   1200 +8.5212000e+10 1.14023900e-02 7.81665300e-03            nan
       50 -1    0    0    0    0 +2.8776806216e-02 +6.0823437972e-03 +1.8978030930e+01 1.8978054379e+01 4.9935713700e-03 0.0000e+00 0.0000e+00
       11 -1    0    0    0    0 +3.9350727872e-18 +8.3172765522e-19 +2.5951432034e-15 5.1100000000e-04 5.1099893000e-04 0.0000e+00 1.0000e+00
       50  1    1    2    0    0 +2.6751735551e-02 +1.6128301605e-02 +1.8874647291e+01 1.8874673801e+01 4.9935713700e-03 0.0000e+00 0.0000e+00
       11  1    1    2    0    0 +2.0250706649e-03 -1.0045957808e-02 +1.0338363844e-01 1.0389157808e-01 5.1099893000e-04 0.0000e+00 1.0000e+00
<vert_displacement>
476.80107397144832
</vert_displacement>
</event>
<event>
 4   1200 +8.5212000e+10 1.17140800e-02 7.81665300e-03            nan
       50 -1    0    0    0    0 -1.6005033192e-02 +7.0927011127e-03 +9.8897008853e+00 9.8897176403e+00 4.9935713700e-03 0.0000e+00 0.0000e+00
       11 -1    0    0    0    0 +1.4261549390e-18 -6.3200685695e-19 -8.8123814515e-16 5.1100000000e-04 5.1099893000e-04 0.0000e+00 1.0000e+00
       50  1    1    2    0    0 -2.4096989721e-02 +3.9021802129e-04 +9.7785681568e+00 9.7785991302e+00 4.9935713700e-03 0.0000e+00 0.0000e+00
       11  1    1    2    0    0 +8.0919565298e-03 +6.7024830914e-03 +1.1113272850e-01 1.1162951001e-01 5.1099893000e-04 0.0000e+00 1.0000e+00
<vert_displacement>
401.73557755920211
</vert_displacement>
</event>
<event>
 4   1200 +8.5212000e+10 1.86800300e-02 7.81665300e-03            nan
       50 -1    0    0    0    0 -7.3825319872e-04 -1.5792746296e-02 +6.1788104461e+00 6.1788326907e+00 4.9935713700e-03 0.0000e+00 0.0000e+00
       11 -1    0    0    0    0 -6.7983441057e-20 -1.4543048900e-18 +5.6898743749e-16 5.1100000000e-04 5.1099893000e-04 0.0000e+00 1.0000e+00
       50  1    1    2    0    0 -1.5171546271e-02 -2.5637479196e-02 +5.8434534469e+00 5.8435315159e+00 4.9935713700e-03 0.0000e+00 0.0000e+00
       11  1    1    2    0    0 +1.4433293072e-02 +9.8447328995e-03 +3.3535699919e-01 3.3581217479e-01 5.1099893000e-04 0.0000e+00 1.0000e+00
<vert_displacement>
330.94791627596743
</vert_displacement>
</event>
<event>
 4   1200 +8.5212000e+10 1.22410900e-02 7.81665300e-03            nan
       50 -1    0    0    0    0 +4.6814080068e-03 +6.9350920309e-03 +4.1003899767e+00 4.1004015545e+00 4.9935713700e-03 0.0000e+00 0.0000e+00
       11 -1    0    0    0    0 -1.0694843696e-18 -1.5843465296e-18 -9.3674872669e-16 5.1100000000e-04 5.1099893000e-04 0.0000e+00 1.0000e+00
       50  1    1    2    0    0 +1.0754548810e-02 +1.6009114507e-02 +3.9742291704e+00 3.9742791027e+00 4.9935713700e-03 0.0000e+00 0.0000e+00
       11  1    1    2    0    0 -6.0731408032e-03 -9.0740224763e-03 +1.2616080632e-01 1.2663345172e-01 5.1099893000e-04 0.0000e+00 1.0000e+00
<vert_displacement>
4.3211389893065419
</vert_displacement>
</event>
<event>
 4   1200 +8.5212000e+10 1.55149500e-02 7.81665300e-03            nan
       50 -1    0    0    0    0 -5.5017813410e-02 -3.3461673810e-03 +1.6943789643e+01 1.6943880033e+01 4.9935713700e-03 0.0000e+00 0.0000e+00
       11 -1    0    0    0    0 -1.8475430920e-18 -1.1236703253e-19 +5.6898628947e-16 5.1100000000e-04 5.1099893000e-04 0.0000e+00 1.0000e+00
       50  1    1    2    0    0 -5.2730739256e-02 +1.1298845061e-02 +1.6729956675e+01 1.6730044336e+01 4.9935713700e-03 0.0000e+00 0.0000e+00
       11  1    1    2    0    0 -2.2870741539e-03 -1.4645012442e-02 +2.1383296755e-01 2.1434669633e-01 5.1099893000e-04 0.0000e+00 1.0000e+00
<vert_displacement>
397.18975182107550
</vert_displacement>
</event>
<event>
 4   1200 +8.5212000e+10 4.41905300e-02 7.81665300e-03            nan
       50 -1    0    0    0    0 +4.3804404736e-03 -1.6943958822e-02 +2.2286386990e+01 2.2286394421e+01 4.9935713700e-03 0.0000e+00 0.0000e+00
       11 -1    0    0    0    0 +2.2639994489e-19 -8.7573643945e-19 +1.1518560329e-15 5.1100000000e-04 5.1099893000e-04 0.0000e+00 1.0000e+00
       50  1    1    2    0    0 +1.8827918011e-02 -5.6679554170e-02 +2.0205433062e+01 2.0205521948e+01 4.9935713700e-03 0.0000e+00 0.0000e+00
       11  1    1    2    0    0 -1.4447477537e-02 +3.9735595347e-02 +2.0809539284e+00 2.0813834727e+00 5.1099893000e-04 0.0000e+00 1.0000e+00
<vert_displacement>
487.75598544674193
</vert_displacement>
</event>
<event>
 4   1200 +8.5212000e+10 1.35837000e-02 7.81665300e-03            nan
       50 -1    0    0    0    0 -4.4882775439e-02 +5.2336984476e-05 +2.4019990826e+01 2.4020033278e+01 4.9935713700e-03 0.0000e+00 0.0000e+00
       11 -1    0    0    0    0 +4.9529018233e-18 -5.7754883317e-21 -2.6506528439e-15 5.1100000000e-04 5.1099893000e-04 0.0000e+00 1.0000e+00
       50  1    1    2    0    0 -3.4184368752e-02 -7.1119894094e-03 +2.3862831862e+01 2.3862857929e+01 4.9935713700e-03 0.0000e+00 0.0000e+00
       11  1    1    2    0    0 -1.0698406686e-02 +7.1643263939e-03 +1.5715896448e-01 1.5768634917e-01 5.1099893000e-04 0.0000e+00 1.0000e+00
<vert_displacement>
308.71621024362929
</vert_displacement>
</event>
<event>
 4   1200 +8.5212000e+10 1.26599400e-02 7.81665300e-03            nan
       50 -1    0    0    0    0 +9.5410044684e-03 -1.9953345932e-02 +1.0953276649e+01 1.0953300117e+01 4.9935713700e-03 0.0000e+00 0.0000e+00
       11 -1    0    0    0    0 +3.0825461000e-19 -6.4466072610e-19 +3.5388286766e-16 5.1100000000e-04 5.1099893000e-04 0.0000e+00 1.0000e+00
       50  1    1    2    0    0 +9.3619888655e-04 -2.7664717878e-02 +1.0819193893e+01 1.0819230455e+01 4.9935713700e-03 0.0000e+00 0.0000e+00
       11  1    1    2    0    0 +8.6048055818e-03 +7.7113719464e-03 +1.3408275620e-01 1.3458066193e-01 5.1099893000e-04 0.0000e+00 1.0000e+00
<vert_displacement>
296.36371948539693
</vert_displacement>
</event>
<event>
 4   1200 +8.5212000e+10 4.56952700e-02 7.81665300e-03            nan
       50 -1    0    0    0    0 -5.2437187870e-03 -9.5424881527e-03 +8.5572826755e+00 8.5572910596e+00 4.9935713700e-03 0.0000e+00 0.0000e+00
       11 -1    0    0    0    0 -4.8472817231e-19 -8.8210543499e-19 +7.9103326470e-16 5.1100000000e-04 5.1099893000e-04 0.0000e+00 1.0000e+00
       50  1    1    2    0    0 -1.0481586128e-02 +3.8952971383e-02 +5.2790657079e+00 5.2792221853e+00 4.9935713700e-03 0.0000e+00 0.0000e+00
       11  1    1    2    0    0 +5.2378673413e-03 -4.8495459535e-02 +3.2782169676e+00 3.2785798743e+00 5.1099893000e-04 0.0000e+00 1.0000e+00
<vert_displacement>
115.12751511193808
</vert_displacement>
</event>
<event>
 4   1200 +8.5212000e+10 9.44439000e-03 7.81665300e-03            nan
       50 -1    0    0    0    0 +1.3616303950e-02 +1.1406980560e-02 +6.5255746839e+00 6.5256007703e+00 4.9935713700e-03 0.0000e+00 0.0000e+00
       11 -1    0    0    0    0 -3.7644580261e-19 -3.1536531265e-19 -1.8041057312e-16 5.1100000000e-04 5.1099893000e-04 0.0000e+00 1.0000e+00
       50  1    1    2    0    0 +1.3055662932e-02 +3.2911505843e-03 +6.4620871706e+00 6.4621031265e+00 4.9935713700e-03 0.0000e+00 0.0000e+00
       11  1    1    2    0    0 +5.6064101790e-04 +8.1158299759e-03 +6.3487513324e-02 6.4008643811e-02 5.1099893000e-04 0.0000e+00 1.0000e+00
<vert_displacement>
229.81381620385983
</vert_displacement>
</event>
<event>
 4   1200 +8.5212000e+10 2.44362700e-02 7.81665300e-03            nan
       50 -1    0    0    0    0 -1.0927149573e-02 +1.0851797537e-02 +8.0755787294e+00 8.0755949574e+00 4.9935713700e-03 0.0000e+00 0.0000e+00
       11 -1    0    0    0    0 -1.3426373590e-18 +1.3333787268e-18 +9.9226002401e-16 5.1100000000e-04 5.1099893000e-04 0.0000e+00 1.0000e+00
       50  1    1    2    0    0 -7.9870225050e-03 -1.3788155019e-02 +7.4701743474e+00 7.4701930111e+00 4.9935713700e-03 0.0000e+00 0.0000e+00
       11  1    1    2    0    0 -2.9401270684e-03 +2.4639952555e-02 +6.0540438201e-01 6.0591294629e-01 5.1099893000e-04 0.0000e+00 1.0000e+00
<vert_displacement>
457.81308211147592
</vert_displacement>
</event>
<event>
 4   1200 +8.5212000e+10 1.40545600e-02 7.81665300e-03            nan
       50 -1    0    0    0    0 -2.6755150072e-03 +1.2752891480e-02 +8.2923184777e+00 8.2923302193e+00 4.9935713700e-03 0.0000e+00 0.0000e+00
       11 -1    0    0    0    0 -2.6865960687e-20 +1.2805709563e-19 +8.3266624042e-17 5.1100000000e-04 5.1099893000e-04 0.0000e+00 1.0000e+00
       50  1    1    2    0    0 +4.2332436703e-03 +1.2791670490e-03 +8.1198498529e+00 8.1198525926e+00 4.9935713700e-03 0.0000e+00 0.0000e+00
       11  1    1    2    0    0 -6.9087586776e-03 +1.1473724431e-02 +1.7246862483e-01 1.7298862671e-01 5.1099893000e-04 0.0000e+00 1.0000e+00
<vert_displacement>
294.42808620588477
</vert_displacement>
</event>
<event>
 4   1200 +8.5212000e+10 2.66828200e-02 7.81665300e-03            nan
       50 -1    0    0    0    0 +5.0486263022e-02 -1.7539967919e-02 +1.7538823031e+01 1.7538905176e+01 4.9935713700e-03 0.0000e+00 0.0000e+00
       11 -1    0    0    0    0 +2.4767529866e-18 -8.6047501497e-19 +8.6041884911e-16 5.1100000000e-04 5.1099893000e-04 0.0000e+00 -1.0000e+00
       50  1    1    2    0    0 +2.4471876568e-02 -6.2994764058e-03 +1.6838641049e+01 1.6838660751e+01 4.9935713700e-03 0.0000e+00 0.0000e+00
       11  1    1    2    0    0 +2.6014386453e-02 -1.1240491514e-02 +7.0018198235e-01 7.0075542558e-01 5.1099893000e-04 0.0000e+00 -1.0000e+00
<vert_displacement>
260.76884944324479
</vert_displacement>
</event>
<event>
 4   1200 +8.5212000e+10 6.95498000e-03 7.81665300e-03            nan
       50 -1    0    0    0    0 +5.2896185312e-02 +2.6096481309e-03 +1.9666092318e+01 1.9666164263e+01 4.9935713700e-03 0.0000e+00 0.0000e+00
       11 -1    0    0    0    0 +1.9410123180e-18 +9.5760386837e-20 +7.2164234927e-16 5.1100000000e-04 5.1099893000e-04 0.0000e+00 1.0000e+00
       50  1    1    2    0    0 +5.4909530321e-02 +6.9803789170e-03 +1.9643127304e+01 1.9643205924e+01 4.9935713700e-03 0.0000e+00 0.0000e+00
       11  1    1    2    0    0 -2.0133450084e-03 -4.3707307862e-03 +2.2965014222e-02 2.3469338377e-02 5.1099893000e-04 0.0000e+00 1.0000e+00
<vert_displacement>
465.57517787336741
</vert_displacement>
</event>
<event>
 4   1200 +8.5212000e+10 8.10937500e-03 7.81665300e-03            nan
       50 -1    0    0    0    0 -2.4041315688e-03 -3.2477408223e-03 +6.8397600637e+00 6.8397630802e+00 4.9935713700e-03 0.0000e+00 0.0000e+00
       11 -1    0    0    0    0 -5.6096449124e-20 -7.5780681130e-20 +1.5959453194e-16 5.1100000000e-04 5.1099893000e-04 0.0000e+00 1.0000e+00
       50  1    1    2    0    0 -8.7765814300e-03 -3.0340734561e-03 +6.7995705967e+00 6.7995787715e+00 4.9935713700e-03 0.0000e+00 0.0000e+00
       11  1    1    2    0    0 +6.3724498612e-03 -2.1366736618e-04 +4.0189467022e-02 4.0695308703e-02 5.1099893000e-04 0.0000e+00 1.0000e+00
<vert_displacement>
280.02413033469600
</vert_displacement>
</event>
<event>
 4   1200 +8.5212000e+10 1.93820800e-02 7.81665300e-03            nan
       50 -1    0    0    0    0 -8.3073937304e-03 -9.4807370497e-03 +1.0934638922e+01 1.0934647328e+01 4.9935713700e-03 0.0000e+00 0.0000e+00
       11 -1    0    0    0    0 +4.2173562985e-20 +4.8130192704e-20 -5.5511114346e-17 5.1100000000e-04 5.1099893000e-04 0.0000e+00 1.0000e+00
       50  1    1    2    0    0 -2.4724648015e-02 -6.7132084949e-04 +1.0579905391e+01 1.0579935481e+01 4.9935713700e-03 0.0000e+00 0.0000e+00
       11  1    1    2    0    0 +1.6417254285e-02 -8.8094162002e-03 +3.5473353090e-01 3.5522284712e-01 5.1099893000e-04 0.0000e+00 1.0000e+00
<vert_displacement>
156.59342680588816
</vert_displacement>
</event>
<event>
 4   1200 +8.5212000e+10 1.63885300e-02 7.81665300e-03            nan
       50 -1    0    0    0    0 +6.0412244660e-02 +7.2447228530e-03 +2.1637039202e+01 2.1637125328e+01 4.9935713700e-03 0.0000e+00 0.0000e+00
       11 -1    0    0    0    0 -1.0113143592e-17 -1.2127826554e-18 -3.6220882965e-15 5.1100000000e-04 5.1099893000e-04 0.0000e+00 1.0000e+00
       50  1    1    2    0    0 +7.0794112281e-02 +1.8183679547e-02 +2.1395907011e+01 2.1396032441e+01 4.9935713700e-03 0.0000e+00 0.0000e+00
       11  1    1    2    0    0 -1.0381867621e-02 -1.0938956694e-02 +2.4113219073e-01 2.4160388755e-01 5.1099893000e-04 0.0000e+00 1.0000e+00
<vert_displacement>
356.60482379098517
</vert_displacement>
</event>
<event>
 4   1200 +8.5212000e+10 1.61850600e-02 7.81665300e-03            nan
       50 -1    0    0    0    0 -1.2742607109e-02 +1.1135506229e-02 +1.1474389039e+01 1.1474402604e+01 4.9935713700e-03 0.0000e+00 0.0000e+00
       11 -1    0    0    0    0 -1.2560476100e-18 +1.0976345629e-18 +1.1310384763e-15 5.1100000000e-04 5.1099893000e-04 0.0000e+00 1.0000e+00
       50  1    1    2    0    0 -8.3786483041e-03 -3.9335373153e-03 +1.1237581413e+01 1.1237586334e+01 4.9935713700e-03 0.0000e+00 0.0000e+00
       11  1    1    2    0    0 -4.3639588053e-03 +1.5069043544e-02 +2.3680762651e-01 2.3732727045e-01 5.1099893000e-04 0.0000e+00 1.0000e+00
<vert_displacement>
409.14156825039311
</vert_displacement>
</event>
<event>
 4   1200 +8.5212000e+10 6.51576300e-03 7.81665300e-03            nan
       50 -1    0    0    0    0 -3.4300545684e-02 +1.7029764000e-02 +1.7943571918e+01 1.7943613478e+01 4.9935713700e-03 0.0000e+00 0.0000e+00
       11 -1    0    0    0    0 +2.4671430520e-18 -1.2249036594e-18 -1.2906313268e-15 5.1100000000e-04 5.1099893000e-04 0.0000e+00 1.0000e+00
       50  1    1    2    0    0 -3.7852566731e-02 +1.4852822400e-02 +1.7926407958e+01 1.7926454771e+01 4.9935713700e-03 0.0000e+00 0.0000e+00
       11  1    1    2    0    0 +3.5520210475e-03 +2.1769415997e-03 +1.7163960152e-02 1.7669707872e-02 5.1099893000e-04 0.0000e+00 1.0000e+00
<vert_displacement>
240.91475934324896
</vert_displacement>
</event>
<event>
 4   1200 +8.5212000e+10 5.12824900e-03 7.81665300e-03            nan
       50 -1    0    0    0    0 +8.7625885761e-03 -5.4092069614e-03 +7.7432629081e+00 7.7432713657e+00 4.9935713700e-03 0.0000e+00 0.0000e+00
       11 -1    0    0    0    0 -3.9261626143e-19 +2.4236475284e-19 -3.4694438839e-16 5.1100000000e-04 5.1099893000e-04 0.0000e+00 1.0000e+00
       50  1    1    2    0    0 +9.8171042638e-03 -4.9102828918e-03 +7.7419279022e+00 7.7419372941e+00 4.9935713700e-03 0.0000e+00 0.0000e+00
       11  1    1    2    0    0 -1.0545156878e-03 -4.9892406963e-04 +1.3350058977e-03 1.8450716020e-03 5.1099893000e-04 0.0000e+00 1.0000e+00
<vert_displacement>
485.78281445182398
</vert_displacement>
</event>
<event>
 4   1200 +8.5212000e+10 7.41125700e-02 7.81665300e-03            nan
       50 -1    0    0    0    0 +7.9609361964e-02 +4.3683467151e-02 +2.3641471510e+01 2.3641646431e+01 4.9935713700e-03 0.0000e+00 0.0000e+00
       11 -1    0    0    0    0 -1.4486663474e-18 -7.9491616612e-19 -4.3020824856e-16 5.1100000000e-04 5.1099893000e-04 0.0000e+00 1.0000e+00
       50  1    1    2    0    0 -3.3904295576e-04 -2.3655800572e-02 +1.5450986266e+01 1.5451005185e+01 4.9935713700e-03 0.0000e+00 0.0000e+00
       11  1    1    2    0    0 +7.9948404919e-02 +6.7339267723e-02 +8.1904852442e+00 8.1911522463e+00 5.1099893000e-04 0.0000e+00 1.0000e+00
<vert_displacement>
316.77074450088401
</vert_displacement>
</event>
<event>
 4   1200 +8.5212000e+10 1.72172500e-02 7.81665300e-03            nan
       50 -1    0    0    0    0 +3.9166833891e-02 -1.6856340930e-03 +1.9940539389e+01 1.9940578551e+01 4.9935713700e-03 0.0000e+00 0.0000e+00
       11 -1    0    0    0    0 -1.8535737935e-18 +7.9772778901e-20 -9.4368774718e-16 5.1100000000e-04 5.1099893000e-04 0.0000e+00 1.0000e+00
       50  1    1    2    0    0 +3.6733294672e-02 +1.4703876465e-02 +1.9671243389e+01 1.9671283815e+01 4.9935713700e-03 0.0000e+00 0.0000e+00
       11  1    1    2    0    0 +2.4335392193e-03 -1.6389510558e-02 +2.6929600024e-01 2.6980573574e-01 5.1099893000e-04 0.0000e+00 1.0000e+00
<vert_displacement>
255.00504780239956
</vert_displacement>
</event>
<event>
 4   1200 +8.5212000e+10 7.06320100e-03 7.81665300e-03            nan
       50 -1    0    0    0    0 +3.8849654834e-02 +6.5436877924e-02 +2.5088382033e+01 2.5088497948e+01 4.9935713700e-03 0.0000e+00 0.0000e+00
       11 -1    0    0    0    0 +6.4469456640e-19 +1.0858989564e-18 +4.1633171893e-16 5.1100000000e-04 5.1099893000e-04 0.0000e+00 1.0000e+00
       50  1    1    2    0    0 +3.8121925022e-02 +6.0425716251e-02 +2.5063955883e+01 2.5064058211e+01 4.9935713700e-03 0.0000e+00 0.0000e+00
       11  1    1    2    0    0 +7.2772981203e-04 +5.0111616725e-03 +2.4426150035e-02 2.4950736611e-02 5.1099893000e-04 0.0000e+00 1.0000e+00
<vert_displacement>
36.735855093042417
</vert_displacement>
</event>
<event>
 4   1200 +8.5212000e+10 1.52546500e-02 7.81665300e-03            nan
       50 -1    0    0    0    0 -2.9405449636e-02 -2.2044815016e-02 +1.6965868401e+01 1.6965908941e+01 4.9935713700e-03 0.0000e+00 0.0000e+00
       11 -1    0    0    0    0 +3.0066367910e-18 +2.2540295319e-18 -1.7347194060e-15 5.1100000000e-04 5.1099893000e-04 0.0000e+00 1.0000e+00
       50  1    1    2    0    0 -1.4703527968e-02 -2.0369431284e-02 +1.6760093414e+01 1.6760112986e+01 4.9935713700e-03 0.0000e+00 0.0000e+00
       11  1    1    2    0    0 -1.4701921668e-02 -1.6753837314e-03 +2.0577498684e-01 2.0630695514e-01 5.1099893000e-04 0.0000e+00 1.0000e+00
<vert_displacement>
97.972429181311568
</vert_displacement>
</event>
<event>
 4   1200 +8.5212000e+10 1.03801800e-02 7.81665300e-03            nan
       50 -1    0    0    0    0 +4.5289800186e-03 -7.0882785134e-03 +4.3299221462e+00 4.3299331962e+00 4.9935713700e-03 0.0000e+00 0.0000e+00
       11 -1    0    0    0    0 -7.6207733197e-19 +1.1927225017e-18 -7.2858248509e-16 5.1100000000e-04 5.1099893000e-04 0.0000e+00 1.0000e+00
       50  1    1    2    0    0 +4.1566137829e-03 +2.1426011951e-03 +4.2473127842e+00 4.2473182940e+00 4.9935713700e-03 0.0000e+00 0.0000e+00
       11  1    1    2    0    0 +3.7236623570e-04 -9.2308797085e-03 +8.2609362045e-02 8.3125902186e-02 5.1099893000e-04 0.0000e+00 1.0000e+00
<vert_displacement>
397.47173090488826
</vert_displacement>
</event>
<event>
 4   1200 +8.5212000e+10 2.68313000e-02 7.81665300e-03            nan
       50 -1    0    0    0    0 +6.2425281796e-03 -1.2014176956e-02 +5.5844371086e+00 5.5844557537e+00 4.9935713700e-03 0.0000e+00 0.0000e+00
       11 -1    0    0    0    0 -5.8949981105e-19 +1.1345331317e-18 -5.2735438682e-16 5.1100000000e-04 5.1099893000e-04 0.0000e+00 1.0000e+00
       50  1    1    2    0    0 -9.0124785116e-03 -3.2410420718e-02 +4.7911580875e+00 4.7912787870e+00 4.9935713700e-03 0.0000e+00 0.0000e+00
       11  1    1    2    0    0 +1.5255006691e-02 +2.0396243762e-02 +7.9327902114e-01 7.9368796670e-01 5.1099893000e-04 0.0000e+00 1.0000e+00
<vert_displacement>
39.806717650660126
</vert_displacement>
</event>
<event>
 4   1200 +8.5212000e+10 5.13642200e-03 7.81665300e-03            nan
       50 -1    0    0    0    0 +4.2245773231e-02 -4.4388791317e-03 +1.2419107102e+01 1.2419180752e+01 4.9935713700e-03 0.0000e+00 0.0000e+00
       11 -1    0    0    0    0 +5.7357058567e-18 -6.0266632815e-19 +1.6861413555e-15 5.1100000000e-04 5.1099893000e-04 0.0000e+00 1.0000e+00
       50  1    1    2    0    0 +4.2074603100e-02 -3.2469859150e-03 +1.2417691956e+01 1.2417764664e+01 4.9935713700e-03 0.0000e+00 0.0000e+00
       11  1    1    2    0    0 +1.7117013156e-04 -1.1918932167e-03 +1.4151460988e-03 1.9270877099e-03 5.1099893000e-04 0.0000e+00 1.0000e+00
<vert_displacement>
404.15037648649502
</vert_displacement>
</event>
<event>
 4   1200 +8.5212000e+10 1.07705900e-02 7.81665300e-03            nan
       50 -1    0    0    0    0 -2.7624808371e-03 +1.3031401723e-02 +1.2366532373e+01 1.2366540555e+01 4.9935713700e-03 0.0000e+00 0.0000e+00
       11 -1    0    0    0    0 +1.0385230335e-19 -4.8990062361e-19 -4.6490562184e-16 5.1100000000e-04 5.1099893000e-04 0.0000e+00 1.0000e+00
       50  1    1    2    0    0 -6.6391969350e-03 +4.2256081698e-03 +1.2276774687e+01 1.2276778225e+01 4.9935713700e-03 0.0000e+00 0.0000e+00
       11  1    1    2    0    0 +3.8767160980e-03 +8.8057935528e-03 +8.9757685473e-02 9.0273330221e-02 5.1099893000e-04 0.0000e+00 1.0000e+00
<vert_displacement>
468.22163804824271
</vert_displacement>
</event>
<event>
 4   1200 +8.5212000e+10 1.11311600e-02 7.81665300e-03            nan
       50 -1    0    0    0    0 +1.9573381374e-03 -1.4403983957e-02 +5.6276765311e+00 5.6276975203e+00 4.9935713700e-03 0.0000e+00 0.0000e+00
       11 -1    0    0    0    0 +1.0860205502e-19 -7.9919878344e-19 +3.1224918402e-16 5.1100000000e-04 5.1099893000e-04 0.0000e+00 1.0000e+00
       50  1    1    2    0    0 +1.1376640961e-02 -1.1053842955e-02 +5.5291019503e+00 5.5291269589e+00 4.9935713700e-03 0.0000e+00 0.0000e+00
       11  1    1    2    0    0 -9.4193028241e-03 -3.3501410019e-03 +9.8574580803e-02 9.9081561407e-02 5.1099893000e-04 0.0000e+00 1.0000e+00
<vert_displacement>
430.50045337229921
</vert_displacement>
</event>
<event>
 4   1200 +8.5212000e+10 2.05247100e-02 7.81665300e-03            nan
       50 -1    0    0    0    0 -1.4698810708e-03 -1.5333272703e-02 +7.2590139380e+00 7.2590319986e+00 4.9935713700e-03 0.0000e+00 0.0000e+00
       11 -1    0    0    0    0 +1.9530287498e-19 +2.0373296188e-18 -9.6450408114e-16 5.1100000000e-04 5.1099893000e-04 0.0000e+00 1.0000e+00
       50  1    1    2    0    0 +1.8359378743e-02 -1.6999172507e-02 +6.8478198541e+00 6.8478673855e+00 4.9935713700e-03 0.0000e+00 0.0000e+00
       11  1    1    2    0    0 -1.9829259814e-02 +1.6658998040e-03 +4.1119408383e-01 4.1167561316e-01 5.1099893000e-04 0.0000e+00 1.0000e+00
<vert_displacement>
80.223495080551430
</vert_displacement>
</event>
<event>
 4   1200 +8.5212000e+10 2.22549300e-02 7.81665300e-03            nan
       50 -1    0    0    0    0 -3.4387430783e-02 +2.7550125726e-02 +1.1685223041e+01 1.1685307183e+01 4.9935713700e-03 0.0000e+00 0.0000e+00
       11 -1    0    0    0    0 +2.6545642099e-19 -2.1267531789e-19 -9.0204979448e-17 5.1100000000e-04 5.1099893000e-04 0.0000e+00 1.0000e+00
       50  1    1    2    0    0 -1.7417622294e-02 +1.1308484593e-02 +1.1205308636e+01 1.1205328992e+01 4.9935713700e-03 0.0000e+00 0.0000e+00
       11  1    1    2    0    0 -1.6969808489e-02 +1.6241641133e-02 +4.7991440514e-01 4.8048919102e-01 5.1099893000e-04 0.0000e+00 1.0000e+00
<vert_displacement>
138.18573845121381
</vert_displacement>
</event>
<event>
 4   1200 +8.5212000e+10 5.47436900e-02 7.81665300e-03            nan
       50 -1    0    0    0    0 -5.4943674407e-03 -1.2292521333e-02 +1.2849142789e+01 1.2849150814e+01 4.9935713700e-03 0.0000e+00 0.0000e+00
       11 -1    0    0    0    0 +1.5132257724e-19 +3.3855326004e-19 -3.5388339480e-16 5.1100000000e-04 5.1099893000e-04 0.0000e+00 1.0000e+00
       50  1    1    2    0    0 -3.3745973167e-02 -5.3442988068e-02 +8.3921320078e+00 8.3923715073e+00 4.9935713700e-03 0.0000e+00 0.0000e+00
       11  1    1    2    0    0 +2.8251605726e-02 +4.1150466734e-02 +4.4570107816e+00 4.4572903071e+00 5.1099893000e-04 0.0000e+00 1.0000e+00
<vert_displacement>
144.96252449190172
</vert_displacement>
</event>
<event>
 4   1200 +8.5212000e+10 7.13884600e-03 7.81665300e-03            nan
       50 -1    0    0    0    0 +2.3148957804e-02 +1.2586785005e-02 +1.1204343462e+01 1.1204375558e+01 4.9935713700e-03 0.0000e+00 0.0000e+00
       11 -1    0    0    0    0 +1.7490165009e-18 +9.5099290660e-19 +8.4654271532e-16 5.1100000000e-04 5.1099893000e-04 0.0000e+00 1.0000e+00
       50  1    1    2    0    0 +2.8015662011e-02 +1.3909515586e-02 +1.1178805320e+01 1.1178850194e+01 4.9935713700e-03 0.0000e+00 0.0000e+00
       11  1    1    2    0    0 -4.8667042069e-03 -1.3227305802e-03 +2.5538142243e-02 2.6036364092e-02 5.1099893000e-04 0.0000e+00 1.0000e+00
<vert_displacement>
186.61228762390169
</vert_displacement>
</event>
<event>
 4   1200 +8.5212000e+10 1.19486200e-02 7.81665300e-03            nan
       50 -1    0    0    0    0 -3.5559956482e-03 +4.6604957893e-03 +4.6083885895e+00 4.6083950235e+00 4.9935713700e-03 0.0000e+00 0.0000e+00
       11 -1    0    0    0    0 -1.0708583307e-20 +1.4034693051e-20 +1.3877776580e-17 5.1100000000e-04 5.1099893000e-04 0.0000e+00 1.0000e+00
       50  1    1    2    0    0 -1.0554647355e-02 +1.2760627399e-02 +4.4900086175e+00 4.4900419324e+00 4.9935713700e-03 0.0000e+00 0.0000e+00
       11  1    1    2    0    0 +6.9986517073e-03 -8.1001316096e-03 +1.1837997201e-01 1.1886409109e-01 5.1099893000e-04 0.0000e+00 1.0000e+00
<vert_displacement>
403.56269347715869
</vert_displacement>
</event>
<event>
 4   1200 +8.5212000e+10 1.65003200e-02 7.81665300e-03            nan
       50 -1    0    0    0    0 -1.2490860574e-03 +5.2019483096e-03 +3.8269914589e+00 3.8269984561e+00 4.9935713700e-03 0.0000e+00 0.0000e+00
       11 -1    0    0    0    0 +7.2472737948e-20 -3.0182022642e-19 -2.2204438797e-16 5.1100000000e-04 5.1099893000e-04 0.0000e+00 1.0000e+00
       50  1    1    2    0    0 +2.7671535072e-04 +2.0509232703e-02 +3.5671923083e+00 3.5672547716e+00 4.9935713700e-03 0.0000e+00 0.0000e+00
       11  1    1    2    0    0 -1.5258014081e-03 -1.5307284393e-02 +2.5979915061e-01 2.6025468450e-01 5.1099893000e-04 0.0000e+00 1.0000e+00
<vert_displacement>
297.29729136905291
</vert_displacement>
</event>
<event>
 4   1200 +8.5212000e+10 1.70952400e-02 7.81665300e-03            nan
       50 -1    0    0    0    0 +3.8650528854e-02 -6.3526549303e-02 +3.5316551140e+01 3.5316629778e+01 4.9935713700e-03 0.0000e+00 0.0000e+00
       11 -1    0    0    0    0 +3.3413280458e-19 -5.4918534657e-19 +3.0531065500e-16 5.1100000000e-04 5.1099893000e-04 0.0000e+00 1.0000e+00
       50  1    1    2    0    0 +3.6077857637e-02 -4.6863249577e-02 +3.5053054661e+01 3.5053104909e+01 4.9935713700e-03 0.0000e+00 0.0000e+00
       11  1    1    2    0    0 +2.5726712168e-03 -1.6663299726e-02 +2.6349647971e-01 2.6403586903e-01 5.1099893000e-04 0.0000e+00 1.0000e+00
<vert_displacement>
134.60640644444589
</vert_displacement>
</event>
<event>
 4   1200 +8.5212000e+10 1.22726900e-02 7.81665300e-03            nan
       50 -1    0    0    0    0 +5.2785399349e-03 -2.1634232212e-02 +1.3392613860e+01 1.3392633305e+01 4.9935713700e-03 0.0000e+00 0.0000e+00
       11 -1    0    0    0    0 +1.2580443242e-19 -5.1561271448e-19 +3.1918867833e-16 5.1100000000e-04 5.1099893000e-04 0.0000e+00 1.0000e+00
       50  1    1    2    0    0 -5.9750080713e-03 -2.1060113241e-02 +1.3268484045e+01 1.3268503043e+01 4.9935713700e-03 0.0000e+00 0.0000e+00
       11  1    1    2    0    0 +1.1253548006e-02 -5.7411897041e-04 +1.2412981528e-01 1.2464126170e-01 5.1099893000e-04 0.0000e+00 1.0000e+00
<vert_displacement>
435.95177596720100
</vert_displacement>
</event>
<event>
 4   1200 +8.5212000e+10 8.82363400e-03 7.81665300e-03            nan
       50 -1    0    0    0    0 +5.1624299237e-03 +7.0322424669e-04 +6.5589915363e+00 6.5589955065e+00 4.9935713700e-03 0.0000e+00 0.0000e+00
       11 -1    0    0    0    0 -3.8776227777e-19 -5.2820830445e-20 -4.9266131175e-16 5.1100000000e-04 5.1099893000e-04 0.0000e+00 1.0000e+00
       50  1    1    2    0    0 +9.6107661493e-03 -5.0265174112e-03 +6.5067860061e+00 6.5067969614e+00 4.9935713700e-03 0.0000e+00 0.0000e+00
       11  1    1    2    0    0 -4.4483362256e-03 +5.7297416579e-03 +5.2205530224e-02 5.2709545061e-02 5.1099893000e-04 0.0000e+00 1.0000e+00
<vert_displacement>
388.90457502032723
</vert_displacement>
</event>
<event>
 4   1200 +8.5212000e+10 1.55222000e-02 7.81665300e-03            nan
       50 -1    0    0    0    0 -2.5120457488e-02 -8.7800328336e-02 +3.4825264593e+01 3.4825384690e+01 4.9935713700e-03 0.0000e+00 0.0000e+00
       11 -1    0    0    0    0 +2.7428523642e-18 +9.5867417332e-18 -3.8025007852e-15 5.1100000000e-04 5.1099893000e-04 0.0000e+00 1.0000e+00
       50  1    1    2    0    0 -1.9432150051e-02 -7.3649260609e-02 +3.4612647845e+01 3.4612732016e+01 4.9935713700e-03 0.0000e+00 0.0000e+00
       11  1    1    2    0    0 -5.6883074367e-03 -1.4151067727e-02 +2.1261674739e-01 2.1316367408e-01 5.1099893000e-04 0.0000e+00 1.0000e+00
<vert_displacement>
272.79199576109005
</vert_displacement>
</event>
<event>
 4   1200 +8.5212000e+10 7.23804900e-03 7.81665300e-03            nan
       50 -1    0    0    0    0 +5.7497538217e-02 -3.7411210916e-02 +2.4335653353e+01 2.4335750545e+01 4.9935713700e-03 0.0000e+00 0.0000e+00
       11 -1    0    0    0    0 -3.7379166144e-18 +2.4321038984e-18 -1.5820615249e-15 5.1100000000e-04 5.1099893000e-04 0.0000e+00 1.0000e+00
       50  1    1    2    0    0 +6.0981932048e-02 -3.3514253656e-02 +2.4308758068e+01 2.4308858174e+01 4.9935713700e-03 0.0000e+00 0.0000e+00
       11  1    1    2    0    0 -3.4843938307e-03 -3.8969572592e-03 +2.6895284824e-02 2.7403370995e-02 5.1099893000e-04 0.0000e+00 1.0000e+00
<vert_displacement>
277.43202396611150
</vert_displacement>
</event>
<event>
 4   1200 +8.5212000e+10 4.10795300e-02 7.81665300e-03            nan
       50 -1    0    0    0    0 +2.0440997074e-02 -2.9145037741e-02 +1.9271198637e+01 1.9271232164e+01 4.9935713700e-03 0.0000e+00 0.0000e+00
       11 -1    0    0    0    0 -8.9793042046e-19 +1.2802807954e-18 -8.4654361194e-16 5.1100000000e-04 5.1099893000e-04 0.0000e+00 1.0000e+00
       50  1    1    2    0    0 -2.2110148374e-02 -2.9643721336e-02 +1.7477163868e+01 1.7477203707e+01 4.9935713700e-03 0.0000e+00 0.0000e+00
       11  1    1    2    0    0 +4.2551145449e-02 +4.9868359459e-04 +1.7940347694e+00 1.7945394572e+00 5.1099893000e-04 0.0000e+00 1.0000e+00
<vert_displacement>
94.420042797172584
</vert_displacement>
</event>
<event>
 4   1200 +8.5212000e+10 1.85938100e-02 7.81665300e-03            nan
       50 -1    0    0    0    0 +9.4452934519e-02 -4.2285600400e-03 +3.9728948596e+01 3.9729061413e+01 4.9935713700e-03 0.0000e+00 0.0000e+00
       11 -1    0    0    0    0 -1.0788849855e-17 +4.8300563244e-19 -4.5380237626e-15 5.1100000000e-04 5.1099893000e-04 0.0000e+00 1.0000e+00
       50  1    1    2    0    0 +9.2893179665e-02 -2.2087394302e-02 +3.9412535429e+01 3.9412651406e+01 4.9935713700e-03 0.0000e+00 0.0000e+00
       11  1    1    2    0    0 +1.5597548540e-03 +1.7858834262e-02 +3.1641316741e-01 3.1692100660e-01 5.1099893000e-04 0.0000e+00 1.0000e+00
<vert_displacement>
431.89373724274395
</vert_displacement>
</event>
<event>
 4   1200 +8.5212000e+10 1.81075900e-02 7.81665300e-03            nan
       50 -1    0    0    0    0 +2.0097812041e-02 -3.2627765374e-03 +1.0616412456e+01 1.0616433156e+01 4.9935713700e-03 0.0000e+00 0.0000e+00
       11 -1    0    0    0    0 +1.3004559333e-18 -2.1112233999e-19 +6.8694923311e-16 5.1100000000e-04 5.1099893000e-04 0.0000e+00 1.0000e+00
       50  1    1    2    0    0 +2.1442937349e-02 -2.0467845957e-02 +1.0311166076e+01 1.0311209896e+01 4.9935713700e-03 0.0000e+00 0.0000e+00
       11  1    1    2    0    0 -1.3451253076e-03 +1.7205069420e-02 +3.0524638027e-01 3.0573425971e-01 5.1099893000e-04 0.0000e+00 1.0000e+00
<vert_displacement>
380.95651593789330
</vert_displacement>
</event>
<event>
 4   1200 +8.5212000e+10 9.50305300e-03 7.81665300e-03            nan
       50 -1    0    0    0    0 -2.5028738110e-03 +3.9302217872e-02 +2.1904735186e+01 2.1904771157e+01 4.9935713700e-03 0.0000e+00 0.0000e+00
       11 -1    0    0    0    0 +3.0128262648e-20 -4.7309917803e-19 -2.6367754220e-16 5.1100000000e-04 5.1099893000e-04 0.0000e+00 1.0000e+00
       50  1    1    2    0    0 -1.6008104756e-03 +4.7222749233e-02 +2.1840566354e+01 2.1840618035e+01 4.9935713700e-03 0.0000e+00 0.0000e+00
       11  1    1    2    0    0 -9.0206333541e-04 -7.9205313609e-03 +6.4168832292e-02 6.4664122147e-02 5.1099893000e-04 0.0000e+00 1.0000e+00
<vert_displacement>
88.208490118145804
</vert_displacement>
</event>
<event>
 4   1200 +8.5212000e+10 4.53738000e-02 7.81665300e-03            nan
       50 -1    0    0    0    0 +3.0251164831e-02 -4.2525478599e-02 +2.0307874448e+01 2.0307942119e+01 4.9935713700e-03 0.0000e+00 0.0000e+00
       11 -1    0    0    0    0 +2.0465937126e-18 -2.8769925923e-18 +1.3738964564e-15 5.1100000000e-04 5.1099893000e-04 0.0000e+00 1.0000e+00
       50  1    1    2    0    0 +5.0353646217e-02 -7.6372899308e-02 +1.8070994213e+01 1.8071226442e+01 4.9935713700e-03 0.0000e+00 0.0000e+00
       11  1    1    2    0    0 -2.0102481386e-02 +3.3847420709e-02 +2.2368802350e+00 2.2372266770e+00 5.1099893000e-04 0.0000e+00 1.0000e+00
<vert_displacement>
194.88311088882185
</vert_displacement>
</event>
<event>
 4   1200 +8.5212000e+10 8.54951000e-03 7.81665300e-03            nan
       50 -1    0    0    0    0 -3.4044720831e-03 +4.9217403206e-03 +4.1321634358e+00 4.1321707866e+00 4.9935713700e-03 0.0000e+00 0.0000e+00
       11 -1    0    0    0    0 +1.7150758562e-19 -2.4794322844e-19 -2.0816659880e-16 5.1100000000e-04 5.1099893000e-04 0.0000e+00 1.0000e+00
       50  1    1    2    0    0 +1.8544540286e-03 +2.9180888293e-04 +4.0844922826e+00 4.0844957665e+00 4.9935713700e-03 0.0000e+00 0.0000e+00
       11  1    1    2    0    0 -5.2589261117e-03 +4.6299314376e-03 +4.7671153198e-02 4.8186020131e-02 5.1099893000e-04 0.0000e+00 1.0000e+00
<vert_displacement>
343.72431324669566
</vert_displacement>
</event>
<event>
 4   1200 +8.5212000e+10 3.38446100e-02 7.81665300e-03            nan
       50 -1    0    0    0    0 -5.2992077712e-03 -4.9854718543e-04 +9.0852269451e+00 9.0852298765e+00 4.9935713700e-03 0.0000e+00 0.0000e+00
       11 -1    0    0    0    0 -3.3592585591e-19 -3.1603759884e-20 +5.7592809519e-16 5.1100000000e-04 5.1099893000e-04 0.0000e+00 1.0000e+00
       50  1    1    2    0    0 -1.6358546988e-02 -3.1752525787e-02 +7.8090095736e+00 7.8090928590e+00 4.9935713700e-03 0.0000e+00 0.0000e+00
       11  1    1    2    0    0 +1.1059339217e-02 +3.1253978602e-02 +1.2762173715e+00 1.2766480175e+00 5.1099893000e-04 0.0000e+00 1.0000e+00
<vert_displacement>
101.15935154288145
</vert_displacement>
</event>
<event>
 4   1200 +8.5212000e+10 1.09856400e-02 7.81665300e-03            nan
       50 -1    0    0    0    0 -4.3951157009e-03 +1.3610338004e-02 +1.3935491126e+01 1.3935499360e+01 4.9935713700e-03 0.0000e+00 0.0000e+00
       11 -1    0    0    0    0 +7.4407543806e-20 -2.3041755670e-19 -2.3592226848e-16 5.1100000000e-04 5.1099893000e-04 0.0000e+00 1.0000e+00
       50  1    1    2    0    0 -1.3903178611e-02 +1.5704224613e-02 +1.3841155493e+01 1.3841172286e+01 4.9935713700e-03 0.0000e+00 0.0000e+00
       11  1    1    2    0    0 +9.5080629097e-03 -2.0938866093e-03 +9.4335632285e-02 9.4838073894e-02 5.1099893000e-04 0.0000e+00 1.0000e+00
<vert_displacement>
318.44942652351676
</vert_displacement>
</event>
<event>
 4   1200 +8.5212000e+10 6.13342700e-03 7.81665300e-03            nan
       50 -1    0    0    0    0 -1.5557182192e-02 -2.0891569533e-02 +1.6053184419e+01 1.6053206328e+01 4.9935713700e-03 0.0000e+00 0.0000e+00
       11 -1    0    0    0    0 +1.3314492231e-18 +1.7879885755e-18 -1.3738991844e-15 5.1100000000e-04 5.1099893000e-04 0.0000e+00 1.0000e+00
       50  1    1    2    0    0 -1.2354826189e-02 -2.2458136224e-02 +1.6040765298e+01 1.6040786554e+01 4.9935713700e-03 0.0000e+00 0.0000e+00
       11  1    1    2    0    0 -3.2023560027e-03 +1.5665666904e-03 +1.2419121915e-02 1.2930774308e-02 5.1099893000e-04 0.0000e+00 1.0000e+00
<vert_displacement>
175.79595044436783
</vert_displacement>
</event>
<event>
 4   1200 +8.5212000e+10 6.88229900e-03 7.81665300e-03            nan
       50 -1    0    0    0    0 -2.2559018913e-02 +2.2303843328e-03 +1.4656689389e+01 1.4656707770e+01 4.9935713700e-03 0.0000e+00 0.0000e+00
       11 -1    0    0    0    0 -1.3777288799e-18 +1.3621447459e-19 +8.9511624297e-16 5.1100000000e-04 5.1099893000e-04 0.0000e+00 1.0000e+00
       50  1    1    2    0    0 -1.9730571340e-02 -1.5966228505e-03 +1.4634713067e+01 1.4634727306e+01 4.9935713700e-03 0.0000e+00 0.0000e+00
       11  1    1    2    0    0 -2.8284475729e-03 +3.8270071833e-03 +2.1976321521e-02 2.2491463429e-02 5.1099893000e-04 0.0000e+00 1.0000e+00
<vert_displacement>
454.82785266814022
</vert_displacement>
</event>
<event>
 4   1200 +8.5212000e+10 8.61204600e-03 7.81665300e-03            nan
       50 -1    0    0    0    0 +6.3813212101e-02 +4.2785391419e-02 +2.4007393509e+01 2.4007516963e+01 4.9935713700e-03 0.0000e+00 0.0000e+00
       11 -1    0    0    0    0 +2.5821511078e-18 +1.7312769913e-18 +9.7144017208e-16 5.1100000000e-04 5.1099893000e-04 0.0000e+00 1.0000e+00
       50  1    1    2    0    0 +7.0690336759e-02 +4.2305385318e-02 +2.3959105868e+01 2.3959248022e+01 4.9935713700e-03 0.0000e+00 0.0000e+00
       11  1    1    2    0    0 -6.8771246584e-03 +4.8000610069e-04 +4.8287641133e-02 4.8779941119e-02 5.1099893000e-04 0.0000e+00 1.0000e+00
<vert_displacement>
194.59810662889603
</vert_displacement>
</event>
<event>
 4   1200 +8.5212000e+10 3.04447000e-02 7.81665300e-03            nan
       50 -1    0    0    0    0 +3.8721974313e-02 -2.2868398677e-02 +1.1197950384e+01 1.1198041798e+01 4.9935713700e-03 0.0000e+00 0.0000e+00
       11 -1    0    0    0    0 +4.0070260868e-18 -2.3664668883e-18 +1.1587859375e-15 5.1100000000e-04 5.1099893000e-04 0.0000e+00 1.0000e+00
       50  1    1    2    0    0 +3.2300297846e-02 -5.0769335964e-02 +1.0231810872e+01 1.0231989029e+01 4.9935713700e-03 0.0000e+00 0.0000e+00
       11  1    1    2    0    0 +6.4216764671e-03 +2.7900937287e-02 +9.6613951236e-01 9.6656376857e-01 5.1099893000e-04 0.0000e+00 1.0000e+00
<vert_displacement>
414.54739299466354
</vert_displacement>
</event>
<event>
 4   1200 +8.5212000e+10 9.22419300e-03 7.81665300e-03            nan
       50 -1    0    0    0    0 +2.5132408658e-02 -1.0223700716e-02 +8.5685028064e+00 8.5685472188e+00 4.9935713700e-03 0.0000e+00 0.0000e+00
       11 -1    0    0    0    0 +2.4219445775e-18 -9.8523133412e-19 +8.2572423488e-16 5.1100000000e-04 5.1099893000e-04 0.0000e+00 1.0000e+00
       50  1    1    2    0    0 +2.1795122814e-02 -3.0718588377e-03 +8.5092510124e+00 8.5092809445e+00 4.9935713700e-03 0.0000e+00 0.0000e+00
       11  1    1    2    0    0 +3.3372858439e-03 -7.1518418784e-03 +5.9251793986e-02 5.9777274357e-02 5.1099893000e-04 0.0000e+00 1.0000e+00
<vert_displacement>
323.86250735722479
</vert_displacement>
</event>
<event>
 4   1200 +8.5212000e+10 1.12797200e-02 7.81665300e-03            nan
       50 -1    0    0    0    0 +4.0795727771e-03 -1.2627975895e-02 +5.4574279666e+00 5.4574463859e+00 4.9935713700e-03 0.0000e+00 0.0000e+00
       11 -1    0    0    0    0 +1.5560978078e-19 -4.8167704514e-19 +2.0816620168e-16 5.1100000000e-04 5.1099893000e-04 0.0000e+00 1.0000e+00
       50  1    1    2    0    0 +6.1136804983e-03 -2.5003913634e-03 +5.3554303697e+00 5.3554367711e+00 4.9935713700e-03 0.0000e+00 0.0000e+00
       11  1    1    2    0    0 -2.0341077212e-03 -1.0127584532e-02 +1.0199759693e-01 1.0252061481e-01 5.1099893000e-04 0.0000e+00 1.0000e+00
<vert_displacement>
114.65052138630513
</vert_displacement>
</event>
<event>
 4   1200 +8.5212000e+10 1.11227400e-02 7.81665300e-03            nan
       50 -1    0    0    0    0 +2.3383278631e-02 +6.5509042541e-02 +3.3400651938e+01 3.3400724738e+01 4.9935713700e-03 0.0000e+00 0.0000e+00
       11 -1    0    0    0    0 -3.3033050327e-19 -9.2543202913e-19 -4.7184376231e-16 5.1100000000e-04 5.1099893000e-04 0.0000e+00 1.0000e+00
       50  1    1    2    0    0 +2.4970907272e-02 +7.5118850762e-02 +3.3303695431e+01 3.3303789884e+01 4.9935713700e-03 0.0000e+00 0.0000e+00
       11  1    1    2    0    0 -1.5876286405e-03 -9.6098082211e-03 +9.6956507662e-02 9.7445854076e-02 5.1099893000e-04 0.0000e+00 1.0000e+00
<vert_displacement>
1.0415125172390387
</vert_displacement>
</event>
<event>
 4   1200 +8.5212000e+10 1.17325500e-02 7.81665300e-03            nan
       50 -1    0    0    0    0 +2.6161411215e-03 -4.0686127023e-03 +9.7809974810e+00 9.7809999518e+00 4.9935713700e-03 0.0000e+00 0.0000e+00
       11 -1    0    0    0    0 +3.1922482765e-19 -4.9645723542e-19 +1.1934896055e-15 5.1100000000e-04 5.1099893000e-04 0.0000e+00 1.0000e+00
       50  1    1    2    0    0 +1.3024134268e-02 -5.9634966943e-03 +9.6694216128e+00 9.6694335125e+00 4.9935713700e-03 0.0000e+00 0.0000e+00
       11  1    1    2    0    0 -1.0407993146e-02 +1.8948839919e-03 +1.1157586823e-01 1.1207743929e-01 5.1099893000e-04 0.0000e+00 1.0000e+00
<vert_displacement>
369.43791854078660
</vert_displacement>
</event>
<event>
 4   1200 +8.5212000e+10 1.35114400e-02 7.81665300e-03            nan
       50 -1    0    0    0    0 -1.2564233126e-03 -2.1579526467e-02 +2.7906130681e+01 2.7906139499e+01 4.9935713700e-03 0.0000e+00 0.0000e+00
       11 -1    0    0    0    0 -1.5808002506e-19 -2.7150818123e-18 +3.5110792620e-15 5.1100000000e-04 5.1099893000e-04 0.0000e+00 1.0000e+00
       50  1    1    2    0    0 +4.1216403892e-04 -9.0152250051e-03 +2.7751044627e+01 2.7751046544e+01 4.9935713700e-03 0.0000e+00 0.0000e+00
       11  1    1    2    0    0 -1.6685873515e-03 -1.2564301461e-02 +1.5508605357e-01 1.5560395556e-01 5.1099893000e-04 0.0000e+00 1.0000e+00
<vert_displacement>
104.94873095916114
</vert_displacement>
</event>
<event>
 4   1200 +8.5212000e+10 3.57835800e-02 7.81665300e-03            nan
       50 -1    0    0    0    0 -8.2205782226e-02 -1.2825371156e-02 +2.4448845244e+01 2.4448987320e+01 4.9935713700e-03 0.0000e+00 0.0000e+00
       11 -1    0    0    0    0 +1.2132075120e-18 +1.8927910190e-19 -3.6082039374e-16 5.1100000000e-04 5.1099893000e-04 0.0000e+00 1.0000e+00
       50  1    1    2    0    0 -1.1230465226e-01 -2.0386796487e-02 +2.3151284671e+01 2.3151566574e+01 4.9935713700e-03 0.0000e+00 0.0000e+00
       11  1    1    2    0    0 +3.0098870030e-02 +7.5614253312e-03 +1.2975605730e+00 1.2979317466e+00 5.1099893000e-04 0.0000e+00 1.0000e+00
<vert_displacement>
120.97877278528941
</vert_displacement>
</event>
<event>
 4   1200 +8.5212000e+10 8.50973700e-03 7.81665300e-03            nan
       50 -1    0    0    0    0 -4.3506914178e-02 -3.1102359447e-02 +2.2058305222e+01 2.2058370620e+01 4.9935713700e-03 0.0000e+00 0.0000e+00
       11 -1    0    0    0    0 -2.4908438234e-18 -1.7806622553e-18 +1.2628749787e-15 5.1100000000e-04 5.1099893000e-04 0.0000e+00 1.0000e+00
       50  1    1    2    0    0 -4.5086559229e-02 -3.7721464053e-02 +2.2011735388e+01 2.2011814451e+01 4.9935713700e-03 0.0000e+00 0.0000e+00
       11  1    1    2    0    0 +1.5796450508e-03 +6.6191046058e-03 +4.6569833781e-02 4.7067168627e-02 5.1099893000e-04 0.0000e+00 1.0000e+00
<vert_displacement>
276.74008287510895
</vert_displacement>
</event>
<event>
 4   1200 +8.5212000e+10 2.29585000e-02 7.81665300e-03            nan
       50 -1    0    0    0    0 +9.1711154806e-03 +2.9878315090e-03 +3.2875327026e+00 3.2875506449e+00 4.9935713700e-03 0.0000e+00 0.0000e+00
       11 -1    0    0    0    0 +1.4517830503e-19 +4.7297225197e-20 +5.2041480288e-17 5.1100000000e-04 5.1099893000e-04 0.0000e+00 1.0000e+00
       50  1    1    2    0    0 +4.7246332221e-04 +2.3721856683e-02 +2.6847919259e+00 2.6849014080e+00 4.9935713700e-03 0.0000e+00 0.0000e+00
       11  1    1    2    0    0 +8.6986521584e-03 -2.0734025174e-02 +6.0274077672e-01 6.0316023691e-01 5.1099893000e-04 0.0000e+00 1.0000e+00
<vert_displacement>
317.66095390632694
</vert_displacement>
</event>
<event>
 4   1200 +8.5212000e+10 2.05664200e-02 7.81665300e-03            nan
       50 -1    0    0    0    0 -9.8837281367e-03 +2.4698439381e-04 +3.8990936197e+00 3.8991093522e+00 4.9935713700e-03 0.0000e+00 0.0000e+00
       11 -1    0    0    0    0 -4.5731908625e-19 +1.1427942547e-20 +1.8041066152e-16 5.1100000000e-04 5.1099893000e-04 0.0000e+00 1.0000e+00
       50  1    1    2    0    0 +3.8235733626e-03 -1.5254724740e-02 +3.4597943935e+00 3.4598337398e+00 4.9935713700e-03 0.0000e+00 0.0000e+00
       11  1    1    2    0    0 -1.3707301499e-02 +1.5501709134e-02 +4.3929922626e-01 4.3978661236e-01 5.1099893000e-04 0.0000e+00 1.0000e+00
<vert_displacement>
349.21362012294367
</vert_displacement>
</event>
<event>
 4   1200 +8.5212000e+10 1.78542200e-02 7.81665300e-03            nan
       50 -1    0    0    0    0 -4.1950737088e-03 -7.1720017770e-02 +3.3302081721e+01 3.3302159588e+01 4.9935713700e-03 0.0000e+00 0.0000e+00
       11 -1    0    0    0    0 +3.2341426702e-19 +5.5291703049e-18 -2.5673847702e-15 5.1100000000e-04 5.1099893000e-04 0.0000e+00 1.0000e+00
       50  1    1    2    0    0 +1.2572321408e-02 -6.7365004645e-02 +3.3012048049e+01 3.3012119554e+01 4.9935713700e-03 0.0000e+00 0.0000e+00
       11  1    1    2    0    0 -1.6767395117e-02 -4.3550131246e-03 +2.9003367180e-01 2.9055103438e-01 5.1099893000e-04 0.0000e+00 1.0000e+00
<vert_displacement>
240.76352413931093
</vert_displacement>
</event>
<event>
 4   1200 +8.5212000e+10 1.40354400e-02 7.81665300e-03            nan
       50 -1    0    0    0    0 +2.7845112302e-02 +2.9900228110e-02 +1.1940853179e+01 1.1940924124e+01 4.9935713700e-03 0.0000e+00 0.0000e+00
       11 -1    0    0    0    0 -4.2070208865e-19 -4.5175211651e-19 -1.8041018538e-16 5.1100000000e-04 5.1099893000e-04 0.0000e+00 1.0000e+00
       50  1    1    2    0    0 +2.9474156303e-02 +1.6513086971e-02 +1.1770072365e+01 1.1770121912e+01 4.9935713700e-03 0.0000e+00 0.0000e+00
       11  1    1    2    0    0 -1.6290440003e-03 +1.3387141139e-02 +1.7078081349e-01 1.7131321230e-01 5.1099893000e-04 0.0000e+00 1.0000e+00
<vert_displacement>
470.70763883657258
</vert_displacement>
</event>
<event>
 4   1200 +8.5212000e+10 5.63049000e-03 7.81665300e-03            nan
       50 -1    0    0    0    0 +4.3145677939e-04 -1.7923121306e-02 +2.3852666115e+01 2.3852673375e+01 4.9935713700e-03 0.0000e+00 0.0000e+00
       11 -1    0    0    0    0 +4.4431784376e-20 -1.8457382043e-18 +2.4563677481e-15 5.1100000000e-04 5.1099893000e-04 0.0000e+00 1.0000e+00
       50  1    1    2    0    0 +1.4179457263e-03 -2.0325064894e-02 +2.3846041306e+01 2.3846050533e+01 4.9935713700e-03 0.0000e+00 0.0000e+00
       11  1    1    2    0    0 -9.8648894694e-04 +2.4019435881e-03 +6.6248090426e-03 7.1338424570e-03 5.1099893000e-04 0.0000e+00 1.0000e+00
<vert_displacement>
241.47617187361425
</vert_displacement>
</event>
<event>
 4   1200 +8.5212000e+10 5.16655100e-03 7.81665300e-03            nan
       50 -1    0    0    0    0 -3.8250572243e-02 -1.6049641502e-03 +1.6031908315e+01 1.6031954804e+01 4.9935713700e-03 0.0000e+00 0.0000e+00
       11 -1    0    0    0    0 +2.2184340551e-18 +9.3083761083e-20 -9.2980913198e-16 5.1100000000e-04 5.1099893000e-04 0.0000e+00 1.0000e+00
       50  1    1    2    0    0 -3.7845631319e-02 -2.8684453976e-03 +1.6030189253e+01 1.6030234962e+01 4.9935713700e-03 0.0000e+00 0.0000e+00
       11  1    1    2    0    0 -4.0494092445e-04 +1.2634812475e-03 +1.7190626772e-03 2.2308425336e-03 5.1099893000e-04 0.0000e+00 1.0000e+00
<vert_displacement>
483.59329302935737
</vert_displacement>
</event>
<event>
 4   1200 +8.5212000e+10 8.88122500e-03 7.81665300e-03            nan
       50 -1    0    0    0    0 +1.7951235841e-02 -2.2643785079e-02 +8.9069316204e+00 8.9069798930e+00 4.9935713700e-03 0.0000e+00 0.0000e+00
       11 -1    0    0    0    0 +2.5731909728e-18 -3.2458368812e-18 +1.2767497594e-15 5.1100000000e-04 5.1099893000e-04 0.0000e+00 1.0000e+00
       50  1    1    2    0    0 +2.2196444589e-02 -2.8424699060e-02 +8.8538083840e+00 8.8538832430e+00 4.9935713700e-03 0.0000e+00 0.0000e+00
       11  1    1    2    0    0 -4.2452087480e-03 +5.7809139813e-03 +5.3123236459e-02 5.3607649972e-02 5.1099893000e-04 0.0000e+00 1.0000e+00
<vert_displacement>
89.479663976387044
</vert_displacement>
</event>
<event>
 4   1200 +8.5212000e+10 1.12314100e-02 7.81665300e-03            nan
       50 -1    0    0    0    0 -8.8090768522e-02 -7.2717817559e-03 +2.9824801100e+01 2.9824932497e+01 4.9935713700e-03 0.0000e+00 0.0000e+00
       11 -1    0    0    0    0 +4.3448725702e-18 +3.5866374670e-19 -1.4710390474e-15 5.1100000000e-04 5.1099893000e-04 0.0000e+00 1.0000e+00
       50  1    1    2    0    0 -9.7656302733e-02 -5.2455649931e-03 +2.9725409648e+01 2.9725570944e+01 4.9935713700e-03 0.0000e+00 0.0000e+00
       11  1    1    2    0    0 +9.5655342112e-03 -2.0262167628e-03 +9.9391451521e-02 9.9872552558e-02 5.1099893000e-04 0.0000e+00 1.0000e+00
<vert_displacement>
226.13688775762375
</vert_displacement>
</event>
<event>
 4   1200 +8.5212000e+10 7.87490900e-03 7.81665300e-03            nan
       50 -1    0    0    0    0 -6.6493707787e-03 -6.1286029734e-03 +1.2105598380e+01 1.2105602788e+01 4.9935713700e-03 0.0000e+00 0.0000e+00
       11 -1    0    0    0    0 -3.1253471751e-19 -2.8805751142e-19 +5.6898914137e-16 5.1100000000e-04 5.1099893000e-04 0.0000e+00 1.0000e+00
       50  1    1    2    0    0 -1.0620631305e-02 -1.0708912782e-02 +1.2069202443e+01 1.2069212900e+01 4.9935713700e-03 0.0000e+00 0.0000e+00
       11  1    1    2    0    0 +3.9712605262e-03 +4.5803098089e-03 +3.6395937363e-02 3.6900887856e-02 5.1099893000e-04 0.0000e+00 1.0000e+00
<vert_displacement>
36.909441517021030
</vert_displacement>
</event>
<event>
 4   1200 +8.5212000e+10 1.27388400e-02 7.81665300e-03            nan
       50 -1    0    0    0    0 +2.1322262842e-02 -5.2325507128e-03 +6.8826267607e+00 6.8826635892e+00 4.9935713700e-03 0.0000e+00 0.0000e+00
       11 -1    0    0    0    0 -1.6337315790e-18 +4.0092289460e-19 -5.2735325367e-16 5.1100000000e-04 5.1099893000e-04 0.0000e+00 1.0000e+00
       50  1    1    2    0    0 +9.2065184272e-03 -5.9431977231e-03 +6.7455250823e+00 6.7455358314e+00 4.9935713700e-03 0.0000e+00 0.0000e+00
       11  1    1    2    0    0 +1.2115744415e-02 +7.1064701025e-04 +1.3710167848e-01 1.3763875778e-01 5.1099893000e-04 0.0000e+00 1.0000e+00
<vert_displacement>
78.005770348301297
</vert_displacement>
</event>
<event>
 4   1200 +8.5212000e+10 1.75389600e-02 7.81665300e-03            nan
       50 -1    0    0    0    0 +9.2026175528e-03 -3.2541888549e-04 +5.8060978489e+00 5.8061072985e+00 4.9935713700e-03 0.0000e+00 0.0000e+00
       11 -1    0    0    0    0 -1.4627441337e-18 +5.1724910115e-20 -9.2287172855e-16 5.1100000000e-04 5.1099893000e-04 0.0000e+00 1.0000e+00
       50  1    1    2    0    0 +2.3661666757e-02 -8.0582848330e-03 +5.5147804809e+00 5.5148393901e+00 4.9935713700e-03 0.0000e+00 0.0000e+00
       11  1    1    2    0    0 -1.4459049204e-02 +7.7328659475e-03 +2.9131736800e-01 2.9177890832e-01 5.1099893000e-04 0.0000e+00 1.0000e+00
<vert_displacement>
31.022615631359933
</vert_displacement>
</event>
<event>
 4   1200 +8.5212000e+10 1.88830500e-02 7.81665300e-03            nan
       50 -1    0    0    0    0 -5.7095014569e-03 -5.2345907632e-02 +2.6221746418e+01 2.6221799763e+01 4.9935713700e-03 0.0000e+00 0.0000e+00
       11 -1    0    0    0    0 +2.4778202307e-19 +2.2717175905e-18 -1.1379763058e-15 5.1100000000e-04 5.1099893000e-04 0.0000e+00 1.0000e+00
       50  1    1    2    0    0 +7.4326939925e-03 -3.9009526188e-02 +2.5893151599e+01 2.5893182532e+01 4.9935713700e-03 0.0000e+00 0.0000e+00
       11  1    1    2    0    0 -1.3142195449e-02 -1.3336381445e-02 +3.2859481883e-01 3.2912823101e-01 5.1099893000e-04 0.0000e+00 1.0000e+00
<vert_displacement>
371.77569128035907
</vert_displacement>
</event>
<event>
 4   1200 +8.5212000e+10 1.06194900e-02 7.81665300e-03            nan
       50 -1    0    0    0    0 -8.5971099724e-03 +3.3866748246e-03 +3.0953159778e+00 3.0953337975e+00 4.9935713700e-03 0.0000e+00 0.0000e+00
       11 -1    0    0    0    0 +2.1199640188e-19 -8.3512119706e-20 -7.6327492852e-17 5.1100000000e-04 5.1099893000e-04 0.0000e+00 1.0000e+00
       50  1    1    2    0    0 -3.3434014923e-04 +8.1443489988e-03 +3.0068212577e+00 3.0068364528e+00 4.9935713700e-03 0.0000e+00 0.0000e+00
       11  1    1    2    0    0 -8.2627698232e-03 -4.7576741742e-03 +8.8494720117e-02 8.9008344761e-02 5.1099893000e-04 0.0000e+00 1.0000e+00
<vert_displacement>
324.26150081965534
</vert_displacement>
</event>
<event>
 4   1200 +8.5212000e+10 2.58857800e-02 7.81665300e-03            nan
       50 -1    0    0    0    0 +1.5977040926e-02 -5.7217001239e-03 +5.0866666374e+00 5.0866973981e+00 4.9935713700e-03 0.0000e+00 0.0000e+00
       11 -1    0    0    0    0 -7.6281451048e-19 +2.7317923884e-19 -2.4285993501e-16 5.1100000000e-04 5.1099893000e-04 0.0000e+00 1.0000e+00
       50  1    1    2    0    0 -3.2832488001e-03 -2.3817137794e-02 +4.3474394253e+00 4.3475087726e+00 4.9935713700e-03 0.0000e+00 0.0000e+00
       11  1    1    2    0    0 +1.9260289726e-02 +1.8095437670e-02 +7.3922721218e-01 7.3969962551e-01 5.1099893000e-04 0.0000e+00 1.0000e+00
<vert_displacement>
448.73132700018135
</vert_displacement>
</event>
<event>
 4   1200 +8.5212000e+10 2.52553200e-02 7.81665300e-03            nan
       50 -1    0    0    0    0 +1.6251565235e-02 +5.0280685385e-02 +2.5353778026e+01 2.5353833584e+01 4.9935713700e-03 0.0000e+00 0.0000e+00
       11 -1    0    0    0    0 +1.3343294467e-19 +4.1282792235e-19 +2.0816636500e-16 5.1100000000e-04 5.1099893000e-04 0.0000e+00 1.0000e+00
       50  1    1    2    0    0 +2.0372554631e-02 +2.4720280881e-02 +2.4739196570e+01 2.4739217813e+01 4.9935713700e-03 0.0000e+00 0.0000e+00
       11  1    1    2    0    0 -4.1209893960e-03 +2.5560404503e-02 +6.1458145617e-01 6.1512677085e-01 5.1099893000e-04 0.0000e+00 1.0000e+00
<vert_displacement>
351.20664819490361
</vert_displacement>
</event>
<event>
 4   1200 +8.5212000e+10 5.58289400e-03 7.81665300e-03            nan
       50 -1    0    0    0    0 -6.5180341570e-02 +5.6854443811e-02 +2.4317403712e+01 2.4317558042e+01 4.9935713700e-03 0.0000e+00 0.0000e+00
       11 -1    0    0    0    0 +2.8642284091e-18 -2.4983623777e-18 -1.0685829020e-15 5.1100000000e-04 5.1099893000e-04 0.0000e+00 1.0000e+00
       50  1    1    2    0    0 -6.7048326883e-02 +5.8477907361e-02 +2.4311294433e+01 2.4311457732e+01 4.9935713700e-03 0.0000e+00 0.0000e+00
       11  1    1    2    0    0 +1.8679853131e-03 -1.6234635503e-03 +6.1092789687e-03 6.6113094356e-03 5.1099893000e-04 0.0000e+00 1.0000e+00
<vert_displacement>
93.427839264313803
</vert_displacement>
</event>
<event>
 4   1200 +8.5212000e+10 7.75137300e-03 7.81665300e-03            nan
       50 -1    0    0    0    0 -2.6718300370e-02 -2.3480674008e-02 +3.7424956614e+01 3.7424973850e+01 4.9935713700e-03 0.0000e+00 0.0000e+00
       11 -1    0    0    0    0 +3.0614420879e-18 +2.6904676819e-18 -4.2882344958e-15 5.1100000000e-04 5.1099893000e-04 0.0000e+00 -1.0000e+00
       50  1    1    2    0    0 -2.3309158335e-02 -2.8326594955e-02 +3.7390532424e+01 3.7390550752e+01 4.9935713700e-03 0.0000e+00 0.0000e+00
       11  1    1    2    0    0 -3.4091420346e-03 +4.8459209465e-03 +3.4424190269e-02 3.4934097882e-02 5.1099893000e-04 0.0000e+00 -1.0000e+00
<vert_displacement>
149.19052305819969
</vert_displacement>
</event>
<event>
 4   1200 +8.5212000e+10 6.53982800e-03 7.81665300e-03            nan
       50 -1    0    0    0    0 -8.1807992229e-03 -8.8763868456e-03 +5.8169791214e+00 5.8169937898e+00 4.9935713700e-03 0.0000e+00 0.0000e+00
       11 -1    0    0    0    0 -4.1961982348e-19 -4.5529877703e-19 +2.9837179542e-16 5.1100000000e-04 5.1099893000e-04 0.0000e+00 1.0000e+00
       50  1    1    2    0    0 -3.9502658629e-03 -8.4704388186e-03 +5.7994815225e+00 5.7994912034e+00 4.9935713700e-03 0.0000e+00 0.0000e+00
       11  1    1    2    0    0 -4.2305333600e-03 -4.0594802698e-04 +1.7497598905e-02 1.8013586363e-02 5.1099893000e-04 0.0000e+00 1.0000e+00
<vert_displacement>
190.17714977404836
</vert_displacement>
</event>
<event>
 4   1200 +8.5212000e+10 2.58981900e-02 7.81665300e-03            nan
       50 -1    0    0    0    0 -2.8404803284e-02 +4.9210649624e-03 +1.1175118780e+01 1.1175157079e+01 4.9935713700e-03 0.0000e+00 0.0000e+00
       11 -1    0    0    0    0 -1.6578922207e-18 +2.8722590461e-19 +6.5225385672e-16 5.1100000000e-04 5.1099893000e-04 0.0000e+00 1.0000e+00
       50  1    1    2    0    0 -1.9923064392e-02 +2.9118082212e-02 +1.0502666751e+01 1.0502727199e+01 4.9935713700e-03 0.0000e+00 0.0000e+00
       11  1    1    2    0    0 -8.4817388918e-03 -2.4197017250e-02 +6.7245202945e-01 6.7294088044e-01 5.1099893000e-04 0.0000e+00 1.0000e+00
<vert_displacement>
431.85920164138508
</vert_displacement>
</event>
<event>
 4   1200 +8.5212000e+10 6.27771500e-03 7.81665300e-03            nan
       50 -1    0    0    0    0 -2.5048099805e-03 +2.0288861922e-03 +2.7753646256e+00 2.7753709898e+00 4.9935713700e-03 0.0000e+00 0.0000e+00
       11 -1    0    0    0    0 -1.1585543686e-19 +9.3842446323e-20 +1.2836945064e-16 5.1100000000e-04 5.1099893000e-04 0.0000e+00 1.0000e+00
       50  1    1    2    0    0 -2.0106179416e-04 -1.0189098037e-03 +2.7611302308e+00 2.7611349416e+00 4.9935713700e-03 0.0000e+00 0.0000e+00
       11  1    1    2    0    0 -2.3037481863e-03 +3.0477959959e-03 +1.4234394789e-02 1.4747048215e-02 5.1099893000e-04 0.0000e+00 1.0000e+00
<vert_displacement>
388.93517262327293
</vert_displacement>
</event>
<event>
 4   1200 +8.5212000e+10 2.78131100e-02 7.81665300e-03            nan
       50 -1    0    0    0    0 +1.4784114563e-02 -1.8578848323e-02 +7.2368250959e+00 7.2368657683e+00 4.9935713700e-03 0.0000e+00 0.0000e+00
       11 -1    0    0    0    0 -2.9768328343e-19 +3.7409156614e-19 -1.4571598772e-16 5.1100000000e-04 5.1099893000e-04 0.0000e+00 1.0000e+00
       50  1    1    2    0    0 +3.9893376799e-02 -1.0940424202e-02 +6.4092808161e+00 6.4094162519e+00 4.9935713700e-03 0.0000e+00 0.0000e+00
       11  1    1    2    0    0 -2.5109262236e-02 -7.6384241209e-03 +8.2754427981e-01 8.2796051641e-01 5.1099893000e-04 0.0000e+00 1.0000e+00
<vert_displacement>
485.74509389290023
</vert_displacement>
</event>
<event>
 4   1200 +8.5212000e+10 8.18061700e-03 7.81665300e-03            nan
       50 -1    0    0    0    0 -7.9797213494e-02 +1.2181115615e-02 +2.4558199567e+01 2.4558332738e+01 4.9935713700e-03 0.0000e+00 0.0000e+00
       11 -1    0    0    0    0 +7.9363674357e-18 -1.2114935480e-18 -2.4424774599e-15 5.1100000000e-04 5.1099893000e-04 0.0000e+00 1.0000e+00
       50  1    1    2    0    0 -7.8076973562e-02 +1.8443193070e-02 +2.4517049036e+01 2.4517180804e+01 4.9935713700e-03 0.0000e+00 0.0000e+00
       11  1    1    2    0    0 -1.7202399318e-03 -6.2620774554e-03 +4.1150530158e-02 4.1662934267e-02 5.1099893000e-04 0.0000e+00 1.0000e+00
<vert_displacement>
84.294804313859672
</vert_displacement>
</event>
<event>
 4   1200 +8.5212000e+10 1.53113100e-02 7.81665300e-03            nan
       50 -1    0    0    0    0 +1.1611801466e-02 -3.0889301512e-03 +1.0988776578e+01 1.0988784281e+01 4.9935713700e-03 0.0000e+00 0.0000e+00
       11 -1    0    0    0    0 -3.3728581566e-19 +8.9723573778e-20 -3.1918892876e-16 5.1100000000e-04 5.1099893000e-04 0.0000e+00 1.0000e+00
       50  1    1    2    0    0 +2.1477538330e-02 +7.3506410626e-03 +1.0779785567e+01 1.0779810626e+01 4.9935713700e-03 0.0000e+00 0.0000e+00
       11  1    1    2    0    0 -9.8657368639e-03 -1.0439571214e-02 +2.0899101023e-01 2.0948465549e-01 5.1099893000e-04 0.0000e+00 1.0000e+00
<vert_displacement>
360.79031935850304
</vert_displacement>
</event>
<event>
 4   1200 +8.5212000e+10 2.58485300e-02 7.81665300e-03            nan
       50 -1    0    0    0    0 +7.6376423304e-02 +6.8137733240e-02 +2.8385008854e+01 2.8385193828e+01 4.9935713700e-03 0.0000e+00 0.0000e+00
       11 -1    0    0    0    0 +3.9955031707e-18 +3.5645100599e-18 +1.4849136418e-15 5.1100000000e-04 5.1099893000e-04 0.0000e+00 1.0000e+00
       50  1    1    2    0    0 +9.9952976610e-02 +6.8216974184e-02 +2.7740941818e+01 2.7741206211e+01 4.9935713700e-03 0.0000e+00 0.0000e+00
       11  1    1    2    0    0 -2.3576553307e-02 -7.9240943785e-05 +6.4406703516e-01 6.4449861679e-01 5.1099893000e-04 0.0000e+00 1.0000e+00
<vert_displacement>
450.15237321717956
</vert_displacement>
</event>
<event>
 4   1200 +8.5212000e+10 1.69356500e-02 7.81665300e-03            nan
       50 -1    0    0    0    0 +4.5309457556e-03 +3.0245335627e-03 +1.5966746918e+01 1.5966748628e+01 4.9935713700e-03 0.0000e+00 0.0000e+00
       11 -1    0    0    0    0 +5.1983626073e-19 +3.4700530584e-19 +1.8318678840e-15 5.1100000000e-04 5.1099893000e-04 0.0000e+00 1.0000e+00
       50  1    1    2    0    0 +1.5998981580e-02 +1.4318183764e-02 +1.5706233365e+01 1.5706248834e+01 4.9935713700e-03 0.0000e+00 0.0000e+00
       11  1    1    2    0    0 -1.1468035824e-02 -1.1293650201e-02 +2.6051355333e-01 2.6101079474e-01 5.1099893000e-04 0.0000e+00 1.0000e+00
<vert_displacement>
489.06710610292066
</vert_displacement>
</event>
<event>
 4   1200 +8.5212000e+10 6.44608800e-03 7.81665300e-03            nan
       50 -1    0    0    0    0 +4.1369911320e-02 +2.5986973510e-02 +1.3021102321e+01 1.3021194930e+01 4.9935713700e-03 0.0000e+00 0.0000e+00
       11 -1    0    0    0    0 -5.9523408561e-19 -3.7390296284e-19 -1.8734881673e-16 5.1100000000e-04 5.1099893000e-04 0.0000e+00 1.0000e+00
       50  1    1    2    0    0 +3.8213095794e-02 +2.8595443387e-02 +1.3004827397e+01 1.3004915936e+01 4.9935713700e-03 0.0000e+00 0.0000e+00
       11  1    1    2    0    0 +3.1568155256e-03 -2.6084698768e-03 +1.6274924509e-02 1.6789993659e-02 5.1099893000e-04 0.0000e+00 1.0000e+00
<vert_displacement>
194.20741102070713
</vert_displacement>
</event>
<event>
 4   1200 +8.5212000e+10 1.21309600e-02 7.81665300e-03            nan
       50 -1    0    0    0    0 +2.8536749599e-02 +1.5682468013e-02 +1.3270555039e+01 1.3270595927e+01 4.9935713700e-03 0.0000e+00 0.0000e+00
       11 -1    0    0    0    0 +4.6255784451e-19 +2.5420024013e-19 +2.1510506348e-16 5.1100000000e-04 5.1099893000e-04 0.0000e+00 1.0000e+00
       50  1    1    2    0    0 +3.5304176112e-02 +2.4074787789e-02 +1.3149832484e+01 1.3149902862e+01 4.9935713700e-03 0.0000e+00 0.0000e+00
       11  1    1    2    0    0 -6.7674265128e-03 -8.3923197758e-03 +1.2072255415e-01 1.2120406467e-01 5.1099893000e-04 0.0000e+00 1.0000e+00
<vert_displacement>
231.88142246766105
</vert_displacement>
</event>
<event>
 4   1200 +8.5212000e+10 2.10152400e-02 7.81665300e-03            nan
       50 -1    0    0    0    0 +1.0201405073e-03 +8.0816756742e-03 +1.8024942057e+01 1.8024944590e+01 4.9935713700e-03 0.0000e+00 0.0000e+00
       11 -1    0    0    0    0 -1.0210562456e-20 -8.0889302627e-20 -1.8041122308e-16 5.1100000000e-04 5.1099893000e-04 0.0000e+00 1.0000e+00
       50  1    1    2    0    0 -1.5657389336e-02 -3.9102172828e-03 +1.7607522751e+01 1.7607530854e+01 4.9935713700e-03 0.0000e+00 0.0000e+00
       11  1    1    2    0    0 +1.6677529843e-02 +1.1991892957e-02 +4.1741930694e-01 4.1792473535e-01 5.1099893000e-04 0.0000e+00 1.0000e+00
<vert_displacement>
408.79751445981788
</vert_displacement>
</event>
<event>
 4   1200 +8.5212000e+10 1.38459300e-02 7.81665300e-03            nan
       50 -1    0    0    0    0 +7.3284928840e-02 +4.9297904300e-02 +2.2720759397e+01 2.2720931616e+01 4.9935713700e-03 0.0000e+00 0.0000e+00
       11 -1    0    0    0    0 -1.4771436406e-18 -9.9365704498e-19 -4.5796353745e-16 5.1100000000e-04 5.1099893000e-04 0.0000e+00 1.0000e+00
       50  1    1    2    0    0 +6.2717242812e-02 +4.0815967810e-02 +2.2556432510e+01 2.2556557182e+01 4.9935713700e-03 0.0000e+00 0.0000e+00
       11  1    1    2    0    0 +1.0567686029e-02 +8.4819364903e-03 +1.6432688738e-01 1.6488543377e-01 5.1099893000e-04 0.0000e+00 1.0000e+00
<vert_displacement>
162.92130363932989
</vert_displacement>
</event>
<event>
 4   1200 +8.5212000e+10 1.57864600e-02 7.81665300e-03            nan
       50 -1    0    0    0    0 +4.7697521575e-02 +1.8405820954e-02 +1.9916360666e+01 1.9916426912e+01 4.9935713700e-03 0.0000e+00 0.0000e+00
       11 -1    0    0    0    0 -2.3597336814e-18 -9.1058894056e-19 -9.8531968794e-16 5.1100000000e-04 5.1099893000e-04 0.0000e+00 1.0000e+00
       50  1    1    2    0    0 +6.0644390521e-02 +1.1673119643e-02 +1.9694404740e+01 1.9694502202e+01 4.9935713700e-03 0.0000e+00 0.0000e+00
       11  1    1    2    0    0 -1.2946868946e-02 +6.7327013104e-03 +2.2195592616e-01 2.2243570972e-01 5.1099893000e-04 0.0000e+00 1.0000e+00
<vert_displacement>
269.97345228986637
</vert_displacement>
</event>
<event>
 4   1200 +8.5212000e+10 7.24913500e-03 7.81665300e-03            nan
       50 -1    0    0    0    0 +9.2763707309e-03 -1.1098181552e-02 +1.2440333074e+01 1.2440342485e+01 4.9935713700e-03 0.0000e+00 0.0000e+00
       11 -1    0    0    0    0 +5.8984906275e-19 -7.0569107001e-19 +7.9103337035e-16 5.1100000000e-04 5.1099893000e-04 0.0000e+00 1.0000e+00
       50  1    1    2    0    0 +1.4366027442e-02 -9.8477971813e-03 +1.2413250440e+01 1.2413263664e+01 4.9935713700e-03 0.0000e+00 0.0000e+00
       11  1    1    2    0    0 -5.0896567116e-03 -1.2503843710e-03 +2.7082633965e-02 2.7589821473e-02 5.1099893000e-04 0.0000e+00 1.0000e+00
<vert_displacement>
159.16084080664191
</vert_displacement>
</event>
<event>
 4   1200 +8.5212000e+10 2.84640700e-02 7.81665300e-03            nan
       50 -1    0    0    0    0 +5.1983254023e-02 -2.1876983147e-04 +2.1833532631e+01 2.1833595086e+01 4.9935713700e-03 0.0000e+00 0.0000e+00
       11 -1    0    0    0    0 -2.3128981253e-19 +9.7337564295e-22 -9.7144239312e-17 5.1100000000e-04 5.1099893000e-04 0.0000e+00 1.0000e+00
       50  1    1    2    0    0 +2.7421681417e-02 -1.6693074472e-02 +2.1036042095e+01 2.1036067184e+01 4.9935713700e-03 0.0000e+00 0.0000e+00
       11  1    1    2    0    0 +2.4561572606e-02 +1.6474304640e-02 +7.9749053563e-01 7.9803890200e-01 5.1099893000e-04 0.0000e+00 1.0000e+00
<vert_displacement>
131.55743514916907
</vert_displacement>
</event>
<event>
 4   1200 +8.5212000e+10 9.18381700e-03 7.81665300e-03            nan
       50 -1    0    0    0    0 -1.1100760269e-02 -1.4301674604e-03 +7.1556087470e+00 7.1556192428e+00 4.9935713700e-03 0.0000e+00 0.0000e+00
       11 -1    0    0    0    0 +1.1195131330e-18 +1.4423257647e-19 -7.2164408322e-16 5.1100000000e-04 5.1099893000e-04 0.0000e+00 1.0000e+00
       50  1    1    2    0    0 -3.3146989959e-03 -1.8561130462e-03 +7.0970068384e+00 7.0970096120e+00 4.9935713700e-03 0.0000e+00 0.0000e+00
       11  1    1    2    0    0 -7.7860612728e-03 +4.2594558578e-04 +5.8601908601e-02 5.9120630843e-02 5.1099893000e-04 0.0000e+00 1.0000e+00
<vert_displacement>
208.63199423866905
</vert_displacement>
</event>
<event>
 4   1200 +8.5212000e+10 1.43146200e-02 7.81665300e-03            nan
       50 -1    0    0    0    0 +3.0693974922e-03 +5.1603590901e-03 +1.5672044867e+01 1.5672046813e+01 4.9935713700e-03 0.0000e+00 0.0000e+00
       11 -1    0    0    0    0 +1.7938726732e-19 +3.0159101839e-19 +9.1593392810e-16 5.1100000000e-04 5.1099893000e-04 0.0000e+00 1.0000e+00
       50  1    1    2    0    0 -5.3565933163e-03 +1.5568894347e-02 +1.5493911020e+01 1.5493920573e+01 4.9935713700e-03 0.0000e+00 0.0000e+00
       11  1    1    2    0    0 +8.4259908086e-03 -1.0408535256e-02 +1.7813384712e-01 1.7863724006e-01 5.1099893000e-04 0.0000e+00 1.0000e+00
<vert_displacement>
211.19305551252583
</vert_displacement>
</event>
<event>
 4   1200 +8.5212000e+10 2.36940600e-02 7.81665300e-03            nan
       50 -1    0    0    0    0 +1.9668682584e-02 +7.1677078503e-03 +7.5388935022e+00 7.5389242208e+00 4.9935713700e-03 0.0000e+00 0.0000e+00
       11 -1    0    0    0    0 -1.8103236964e-18 -6.5972244529e-19 -6.9388671524e-16 5.1100000000e-04 5.1099893000e-04 0.0000e+00 1.0000e+00
       50  1    1    2    0    0 +3.8992651465e-02 -3.5506695982e-03 +6.9709786756e+00 6.9710904215e+00 4.9935713700e-03 0.0000e+00 0.0000e+00
       11  1    1    2    0    0 -1.9323968881e-02 +1.0718377448e-02 +5.6791482663e-01 5.6834479923e-01 5.1099893000e-04 0.0000e+00 1.0000e+00
<vert_displacement>
53.618667609339980
</vert_displacement>
</event>
<event>
 4   1200 +8.5212000e+10 7.11740900e-03 7.81665300e-03            nan
       50 -1    0    0    0    0 -6.1546063942e-03 -2.5707178820e-03 +1.8058388477e+00 1.8058580695e+00 4.9935713700e-03 0.0000e+00 0.0000e+00
       11 -1    0    0    0    0 -3.4290718046e-19 -1.4322891899e-19 +1.0061327532e-16 5.1100000000e-04 5.1099893000e-04 0.0000e+00 1.0000e+00
       50  1    1    2    0    0 -9.7767067515e-03 +9.2453079935e-04 +1.7802899465e+00 1.7803240346e+00 4.9935713700e-03 0.0000e+00 0.0000e+00
       11  1    1    2    0    0 +3.6221003572e-03 -3.4952486813e-03 +2.5548901158e-02 2.6045034933e-02 5.1099893000e-04 0.0000e+00 1.0000e+00
<vert_displacement>
21.602109273670191
</vert_displacement>
</event>
<event>
 4   1200 +8.5212000e+10 1.30206500e-02 7.81665300e-03            nan
       50 -1    0    0    0    0 -4.7257355375e-02 -6.5836718387e-02 +2.8188857420e+01 2.8188974357e+01 4.9935713700e-03 0.0000e+00 0.0000e+00
       11 -1    0    0    0    0 -1.5587813164e-18 -2.1716206026e-18 +9.2980794054e-16 5.1100000000e-04 5.1099893000e-04 0.0000e+00 1.0000e+00
       50  1    1    2    0    0 -4.0983104086e-02 -7.5905056375e-02 +2.8046634483e+01 2.8046767585e+01 4.9935713700e-03 0.0000e+00 0.0000e+00
       11  1    1    2    0    0 -6.2742512895e-03 +1.0068337988e-02 +1.4222293703e-01 1.4271777253e-01 5.1099893000e-04 0.0000e+00 1.0000e+00
<vert_displacement>
383.78889022486919
</vert_displacement>
</event>
<event>
 4   1200 +8.5212000e+10 2.97874700e-02 7.81665300e-03            nan
       50 -1    0    0    0    0 -1.3044549772e-02 -3.4842804677e-02 +2.5592759163e+01 2.5592786692e+01 4.9935713700e-03 0.0000e+00 0.0000e+00
       11 -1    0    0    0    0 +1.5561607209e-19 +4.1566021820e-19 -3.0531100917e-16 5.1100000000e-04 5.1099893000e-04 0.0000e+00 1.0000e+00
       50  1    1    2    0    0 +2.3728714211e-03 -5.8915845279e-02 +2.4719069893e+01 2.4719140722e+01 4.9935713700e-03 0.0000e+00 0.0000e+00
       11  1    1    2    0    0 -1.5417421193e-02 +2.4073040603e-02 +8.7368926968e-01 8.7415697059e-01 5.1099893000e-04 0.0000e+00 1.0000e+00
<vert_displacement>
234.69735149156497
</vert_displacement>
</event>
<event>
 4   1200 +8.5212000e+10 2.45843700e-02 7.81665300e-03            nan
       50 -1    0    0    0    0 -1.2808657990e-02 +1.1777657665e-02 +7.2323428307e+00 7.2323654866e+00 4.9935713700e-03 0.0000e+00 0.0000e+00
       11 -1    0    0    0    0 -1.3517808829e-18 +1.2429727213e-18 +7.6327612034e-16 5.1100000000e-04 5.1099893000e-04 0.0000e+00 1.0000e+00
       50  1    1    2    0    0 +1.1536873903e-02 +4.5190091159e-03 +6.6119738123e+00 6.6119873073e+00 4.9935713700e-03 0.0000e+00 0.0000e+00
       11  1    1    2    0    0 -2.4345531893e-02 +7.2586485494e-03 +6.2036901841e-01 6.2088917934e-01 5.1099893000e-04 0.0000e+00 1.0000e+00
<vert_displacement>
6.4994070658276852
</vert_displacement>
</event>
<event>
 4   1200 +8.5212000e+10 2.10248600e-02 7.81665300e-03            nan
       50 -1    0    0    0    0 +4.4582238348e-02 -1.9458291526e-02 +1.6909042464e+01 1.6909113170e+01 4.9935713700e-03 0.0000e+00 0.0000e+00
       11 -1    0    0    0    0 +5.7812052354e-18 -2.5232554715e-18 +2.1926814005e-15 5.1100000000e-04 5.1099893000e-04 0.0000e+00 1.0000e+00
       50  1    1    2    0    0 +5.6925887639e-02 -3.4348135739e-02 +1.6490475184e+01 1.6490609967e+01 4.9935713700e-03 0.0000e+00 0.0000e+00
       11  1    1    2    0    0 -1.2343649291e-02 +1.4889844213e-02 +4.1856727947e-01 4.1901420227e-01 5.1099893000e-04 0.0000e+00 1.0000e+00
<vert_displacement>
329.94177373725898
</vert_displacement>
</event>
<event>
 4   1200 +8.5212000e+10 8.13147800e-03 7.81665300e-03            nan
       50 -1    0    0    0    0 +8.4910357638e-04 -1.0056572768e-02 +2.1184844477e+01 2.1184847469e+01 4.9935713700e-03 0.0000e+00 0.0000e+00
       11 -1    0    0    0    0 +5.6735613491e-20 -6.7196257498e-19 +1.4155341958e-15 5.1100000000e-04 5.1099893000e-04 0.0000e+00 1.0000e+00
       50  1    1    2    0    0 +4.3860175253e-03 -4.6835316390e-03 +2.1144470252e+01 2.1144471815e+01 4.9935713700e-03 0.0000e+00 0.0000e+00
       11  1    1    2    0    0 -3.5369139489e-03 -5.3730411290e-03 +4.0374224948e-02 4.0886654196e-02 5.1099893000e-04 0.0000e+00 1.0000e+00
<vert_displacement>
95.846239177783048
</vert_displacement>
</event>
<event>
 4   1200 +8.5212000e+10 2.12221300e-02 7.81665300e-03            nan
       50 -1    0    0    0    0 +8.7371731518e-03 -3.6072204993e-03 +1.7581648962e+01 1.7581652212e+01 4.9935713700e-03 0.0000e+00 0.0000e+00
       11 -1    0    0    0    0 +1.5172397033e-19 -6.2640605432e-20 +3.0531128765e-16 5.1100000000e-04 5.1099893000e-04 0.0000e+00 1.0000e+00
       50  1    1    2    0    0 +2.6105412240e-03 +1.6240389598e-02 +1.7154990811e+01 1.7154999424e+01 4.9935713700e-03 0.0000e+00 0.0000e+00
       11  1    1    2    0    0 +6.1266319278e-03 -1.9847610098e-02 +4.2665815052e-01 4.2716378799e-01 5.1099893000e-04 0.0000e+00 1.0000e+00
<vert_displacement>
170.32509523601132
</vert_displacement>
</event>
<event>
 4   1200 +8.5212000e+10 1.52499200e-02 7.81665300e-03            nan
       50 -1    0    0    0    0 +3.1801942573e-02 +1.3707823519e-02 +1.1839889215e+01 1.1839940913e+01 4.9935713700e-03 0.0000e+00 0.0000e+00
       11 -1    0    0    0    0 +2.0128812537e-18 +8.6762690445e-19 +7.4939733607e-16 5.1100000000e-04 5.1099893000e-04 0.0000e+00 1.0000e+00
       50  1    1    2    0    0 +3.0620659570e-02 +2.7863990030e-02 +1.1633092543e+01 1.1633167284e+01 4.9935713700e-03 0.0000e+00 0.0000e+00
       11  1    1    2    0    0 +1.1812830032e-03 -1.4156166511e-02 +2.0679667239e-01 2.0728462874e-01 5.1099893000e-04 0.0000e+00 1.0000e+00
<vert_displacement>
221.88238341927610
</vert_displacement>
</event>
<event>
 4   1200 +8.5212000e+10 8.12557300e-03 7.81665300e-03            nan
       50 -1    0    0    0    0 -3.7884165598e-02 +8.7042108647e-03 +1.1593416493e+01 1.1593482733e+01 4.9935713700e-03 0.0000e+00 0.0000e+00
       11 -1    0    0    0    0 -6.3488070084e-19 +1.4586926772e-19 +1.9428793724e-16 5.1100000000e-04 5.1099893000e-04 0.0000e+00 1.0000e+00
       50  1    1    2    0    0 -3.1625223080e-02 +6.7904710606e-03 +1.1553090993e+01 1.1553137352e+01 4.9935713700e-03 0.0000e+00 0.0000e+00
       11  1    1    2    0    0 -6.2589425182e-03 +1.9137398041e-03 +4.0325500461e-02 4.0856381005e-02 5.1099893000e-04 0.0000e+00 1.0000e+00
<vert_displacement>
131.90078368700182
</vert_displacement>
</event>
<event>
 4   1200 +8.5212000e+10 7.85052300e-03 7.81665300e-03            nan
       50 -1    0    0    0    0 +1.3205872716e-02 -2.9389990832e-03 +4.1651285711e+00 4.1651535364e+00 4.9935713700e-03 0.0000e+00 0.0000e+00
       11 -1    0    0    0    0 -9.2400844744e-19 +2.0564032672e-19 -2.9143200659e-16 5.1100000000e-04 5.1099893000e-04 0.0000e+00 1.0000e+00
       50  1    1    2    0    0 +1.9000085025e-02 -4.2466525487e-03 +4.1288826997e+00 4.1289316198e+00 4.9935713700e-03 0.0000e+00 0.0000e+00
       11  1    1    2    0    0 -5.7942123096e-03 +1.3076534655e-03 +3.6245871388e-02 3.6732916661e-02 5.1099893000e-04 0.0000e+00 1.0000e+00
<vert_displacement>
330.85297235950742
</vert_displacement>
</event>
<event>
 4   1200 +8.5212000e+10 1.96245900e-02 7.81665300e-03            nan
       50 -1    0    0    0    0 +2.5510343190e-02 -1.0460957646e-02 +1.1453169732e+01 1.1453204008e+01 4.9935713700e-03 0.0000e+00 0.0000e+00
       11 -1    0    0    0    0 -3.2456290943e-19 +1.3309263713e-19 -1.4571634974e-16 5.1100000000e-04 5.1099893000e-04 0.0000e+00 1.0000e+00
       50  1    1    2    0    0 +2.6986992039e-02 -2.8968713046e-02 +1.1089101761e+01 1.1089173562e+01 4.9935713700e-03 0.0000e+00 0.0000e+00
       11  1    1    2    0    0 -1.4766488495e-03 +1.8507755400e-02 +3.6406797102e-01 3.6454144640e-01 5.1099893000e-04 0.0000e+00 1.0000e+00
<vert_displacement>
21.311894346862559
</vert_displacement>
</event>
<event>
 4   1200 +8.5212000e+10 2.65893100e-02 7.81665300e-03            nan
       50 -1    0    0    0    0 +2.3070389345e-02 -1.9610896760e-02 +7.9845028600e+00 7.9845618344e+00 4.9935713700e-03 0.0000e+00 0.0000e+00
       11 -1    0    0    0    0 -1.4034346910e-18 +1.1929843238e-18 -4.8571908069e-16 5.1100000000e-04 5.1099893000e-04 0.0000e+00 1.0000e+00
       50  1    1    2    0    0 +4.1409232007e-02 -1.5783107542e-03 +7.2491458393e+00 7.2492660009e+00 4.9935713700e-03 0.0000e+00 0.0000e+00
       11  1    1    2    0    0 -1.8338842661e-02 -1.8032586005e-02 +7.3535702066e-01 7.3580683352e-01 5.1099893000e-04 0.0000e+00 1.0000e+00
<vert_displacement>
156.42427626014256
</vert_displacement>
</event>
<event>
 4   1200 +8.5212000e+10 3.07109500e-02 7.81665300e-03            nan
       50 -1    0    0    0    0 -7.6792032004e-03 -7.5734454415e-02 +4.3132142348e+01 4.3132209810e+01 4.9935713700e-03 0.0000e+00 0.0000e+00
       11 -1    0    0    0    0 +5.5098472539e-19 +5.4339658007e-18 -3.0947418614e-15 5.1100000000e-04 5.1099893000e-04 0.0000e+00 1.0000e+00
       50  1    1    2    0    0 -3.3700847890e-03 -1.0413981485e-01 +4.2214070619e+01 4.2214199502e+01 4.9935713700e-03 0.0000e+00 0.0000e+00
       11  1    1    2    0    0 -4.3091184114e-03 +2.8405360434e-02 +9.1807172872e-01 9.1852130797e-01 5.1099893000e-04 0.0000e+00 1.0000e+00
<vert_displacement>
366.11363685346936
</vert_displacement>
</event>
<event>
 4   1200 +8.5212000e+10 7.53191900e-03 7.81665300e-03            nan
       50 -1    0    0    0    0 +3.7735415535e-02 +9.1239407392e-03 +1.5184951557e+01 1.5185002007e+01 4.9935713700e-03 0.0000e+00 0.0000e+00
       11 -1    0    0    0    0 +9.3114713969e-19 +2.2513946651e-19 +3.7469904620e-16 5.1100000000e-04 5.1099893000e-04 0.0000e+00 1.0000e+00
       50  1    1    2    0    0 +4.0233831383e-02 +4.0893499942e-03 +1.5153773485e+01 1.5153828271e+01 4.9935713700e-03 0.0000e+00 0.0000e+00
       11  1    1    2    0    0 -2.4984158473e-03 +5.0345907450e-03 +3.1178072457e-02 3.1684736196e-02 5.1099893000e-04 0.0000e+00 1.0000e+00
<vert_displacement>
335.27871274966992
</vert_displacement>
</event>
<event>
 4   1200 +8.5212000e+10 2.65158400e-02 7.81665300e-03            nan
       50 -1    0    0    0    0 -1.6741451785e-03 +1.5709813197e-02 +9.1845386916e+00 9.1845536371e+00 4.9935713700e-03 0.0000e+00 0.0000e+00
       11 -1    0    0    0    0 +9.1066337281e-20 -8.5454664604e-19 -4.9959962195e-16 5.1100000000e-04 5.1099893000e-04 0.0000e+00 1.0000e+00
       50  1    1    2    0    0 -2.4523510531e-02 +2.2286732939e-03 +8.4643383587e+00 8.4643756507e+00 4.9935713700e-03 0.0000e+00 0.0000e+00
       11  1    1    2    0    0 +2.2849365353e-02 +1.3481139904e-02 +7.2020033288e-01 7.2068898648e-01 5.1099893000e-04 0.0000e+00 1.0000e+00
<vert_displacement>
351.22029290583538
</vert_displacement>
</event>
<event>
 4   1200 +8.5212000e+10 3.26350100e-02 7.81665300e-03            nan
       50 -1    0    0    0    0 +7.6209655916e-02 -7.4814638711e-02 +3.4177523337e+01 3.4177690553e+01 4.9935713700e-03 0.0000e+00 0.0000e+00
       11 -1    0    0    0    0 -6.4984058272e-19 +6.3794525552e-19 -2.9143212122e-16 5.1100000000e-04 5.1099893000e-04 0.0000e+00 1.0000e+00
       50  1    1    2    0    0 +4.3248546076e-02 -8.2642123372e-02 +3.3127559550e+01 3.3127691239e+01 4.9935713700e-03 0.0000e+00 0.0000e+00
       11  1    1    2    0    0 +3.2961109840e-02 +7.8274846610e-03 +1.0499637868e+00 1.0505103136e+00 5.1099893000e-04 0.0000e+00 1.0000e+00
<vert_displacement>
185.34367861913614
</vert_displacement>
</event>
<event>
 4   1200 +8.5212000e+10 2.67040700e-02 7.81665300e-03            nan
       50 -1    0    0    0    0 +2.2477484552e-04 +7.8438589464e-03 +1.2626621646e+01 1.2626625072e+01 4.9935713700e-03 0.0000e+00 0.0000e+00
       11 -1    0    0    0    0 +9.2642862903e-21 +3.2329131283e-19 +5.2041694229e-16 5.1100000000e-04 5.1099893000e-04 0.0000e+00 1.0000e+00
       50  1    1    2    0    0 +2.4880885355e-02 -1.5226417457e-03 +1.1912810688e+01 1.1912837814e+01 4.9935713700e-03 0.0000e+00 0.0000e+00
       11  1    1    2    0    0 -2.4656110510e-02 +9.3665006922e-03 +7.1381095878e-01 7.1429825781e-01 5.1099893000e-04 0.0000e+00 1.0000e+00
<vert_displacement>
475.36450863677339
</vert_displacement>
</event>
<event>
 4   1200 +8.5212000e+10 5.22322800e-03 7.81665300e-03            nan
       50 -1    0    0    0    0 +1.1007590848e-02 +7.8354502716e-03 +7.2149583841e+00 7.2149727637e+00 4.9935713700e-03 0.0000e+00 0.0000e+00
       11 -1    0    0    0    0 -6.6694263820e-19 -4.7474474186e-19 -4.3714954940e-16 5.1100000000e-04 5.1099893000e-04 0.0000e+00 1.0000e+00
       50  1    1    2    0    0 +1.0739403315e-02 +9.3416961756e-03 +7.2126604106e+00 7.2126761841e+00 4.9935713700e-03 0.0000e+00 0.0000e+00
       11  1    1    2    0    0 +2.6818753293e-04 -1.5062459040e-03 +2.2979734178e-03 2.8075795646e-03 5.1099893000e-04 0.0000e+00 1.0000e+00
<vert_displacement>
246.23407387695099
</vert_displacement>
</event>
<event>
 4   1200 +8.5212000e+10 3.54970500e-02 7.81665300e-03            nan
       50 -1    0    0    0    0 +1.3178441886e-03 +7.5922423984e-03 +4.8988826568e+00 4.8988912623e+00 4.9935713700e-03 0.0000e+00 0.0000e+00
       11 -1    0    0    0    0 +1.7359598935e-19 +1.0001052036e-18 +6.4531633474e-16 5.1100000000e-04 5.1099893000e-04 0.0000e+00 1.0000e+00
       50  1    1    2    0    0 -2.5505476187e-02 +2.6997374253e-02 +2.2398343505e+00 2.2401478168e+00 4.9935713700e-03 0.0000e+00 0.0000e+00
       11  1    1    2    0    0 +2.6823320376e-02 -1.9405131855e-02 +2.6590483063e+00 2.6592544456e+00 5.1099893000e-04 0.0000e+00 1.0000e+00
<vert_displacement>
52.362462091041728
</vert_displacement>
</event>
<event>
 4   1200 +8.5212000e+10 9.88633100e-03 7.81665300e-03            nan
       50 -1    0    0    0    0 -2.8132335069e-02 -3.2610531325e-04 +1.2391748012e+01 1.2391780956e+01 4.9935713700e-03 0.0000e+00 0.0000e+00
       11 -1    0    0    0    0 +2.3629449010e-19 +2.7390861272e-21 -1.0408314030e-16 5.1100000000e-04 5.1099893000e-04 0.0000e+00 1.0000e+00
       50  1    1    2    0    0 -2.8355251998e-02 +8.1995763789e-03 +1.2320092883e+01 1.2320129254e+01 4.9935713700e-03 0.0000e+00 0.0000e+00
       11  1    1    2    0    0 +2.2291692920e-04 -8.5256816921e-03 +7.1655128466e-02 7.2162701554e-02 5.1099893000e-04 0.0000e+00 1.0000e+00
<vert_displacement>
178.79082149536316
</vert_displacement>
</event>
<event>
 4   1200 +8.5212000e+10 1.89794000e-02 7.81665300e-03            nan
       50 -1    0    0    0    0 -4.4674526617e-02 -2.3438920801e-02 +1.3444457174e+01 1.3444552757e+01 4.9935713700e-03 0.0000e+00 0.0000e+00
       11 -1    0    0    0    0 -2.5362762907e-19 -1.3306817914e-19 +7.6327295561e-17 5.1100000000e-04 5.1099893000e-04 0.0000e+00 1.0000e+00
       50  1    1    2    0    0 -3.8536708528e-02 -5.2430689933e-03 +1.3107991773e+01 1.3108050421e+01 4.9935713700e-03 0.0000e+00 0.0000e+00
       11  1    1    2    0    0 -6.1378180895e-03 -1.8195851808e-02 +3.3646540077e-01 3.3701333633e-01 5.1099893000e-04 0.0000e+00 1.0000e+00
<vert_displacement>
38.105532586007584
</vert_displacement>
</event>
<event>
 4   1200 +8.5212000e+10 8.79378300e-03 7.81665300e-03            nan
       50 -1    0    0    0    0 -7.5296185905e-02 -6.5169537994e-03 +2.2840045376e+01 2.2840170965e+01 4.9935713700e-03 0.0000e+00 0.0000e+00
       11 -1    0    0    0    0 +7.7775498240e-18 +6.7315405510e-19 -2.3592110113e-15 5.1100000000e-04 5.1099893000e-04 0.0000e+00 1.0000e+00
       50  1    1    2    0    0 -8.1948743886e-02 -4.0825112758e-03 +2.2788640006e+01 2.2788788264e+01 4.9935713700e-03 0.0000e+00 0.0000e+00
       11  1    1    2    0    0 +6.6525579804e-03 -2.4344425237e-03 +5.1405370062e-02 5.1893701248e-02 5.1099893000e-04 0.0000e+00 1.0000e+00
<vert_displacement>
305.78083312486064
</vert_displacement>
</event>
<event>
 4   1200 +8.5212000e+10 2.16904100e-02 7.81665300e-03            nan
       50 -1    0    0    0    0 +3.5494892314e-02 +4.7152791722e-02 +2.5198212549e+01 2.5198282161e+01 4.9935713700e-03 0.0000e+00 0.0000e+00
       11 -1    0    0    0    0 +2.8540924411e-18 +3.7914871031e-18 +2.0261514623e-15 5.1100000000e-04 5.1099893000e-04 0.0000e+00 1.0000e+00
       50  1    1    2    0    0 +3.7388000704e-02 +6.7279339520e-02 +2.4754391635e+01 2.4754511802e+01 4.9935713700e-03 0.0000e+00 0.0000e+00
       11  1    1    2    0    0 -1.8931083898e-03 -2.0126547798e-02 +4.4382091349e-01 4.4428135923e-01 5.1099893000e-04 0.0000e+00 1.0000e+00
<vert_displacement>
228.65687445023261
</vert_displacement>
</event>
<event>
 4   1200 +8.5212000e+10 2.35846400e-02 7.81665300e-03            nan
       50 -1    0    0    0    0 -4.3965247797e-02 +1.7850905423e-02 +1.5243462104e+01 1.5243536776e+01 4.9935713700e-03 0.0000e+00 0.0000e+00
       11 -1    0    0    0    0 +2.9819497538e-18 -1.2107404302e-18 -1.0338901825e-15 5.1100000000e-04 5.1099893000e-04 0.0000e+00 1.0000e+00
       50  1    1    2    0    0 -5.9911735311e-02 +2.2192627774e-03 +1.4704465255e+01 1.4704588322e+01 4.9935713700e-03 0.0000e+00 0.0000e+00
       11  1    1    2    0    0 +1.5946487514e-02 +1.5631642646e-02 +5.3899684899e-01 5.3945945451e-01 5.1099893000e-04 0.0000e+00 1.0000e+00
<vert_displacement>
129.59546054394360
</vert_displacement>
</event>
<event>
 4   1200 +8.5212000e+10 3.79037800e-02 7.81665300e-03            nan
       50 -1    0    0    0    0 +2.3516339221e-02 -4.8196357849e-02 +2.0260601838e+01 2.0260673426e+01 4.9935713700e-03 0.0000e+00 0.0000e+00
       11 -1    0    0    0    0 +9.8257549960e-19 -2.0137726347e-18 +8.4654209084e-16 5.1100000000e-04 5.1099893000e-04 0.0000e+00 1.0000e+00
       50  1    1    2    0    0 +5.8983460683e-02 -3.9351278989e-02 +1.8769271319e+01 1.8769405914e+01 4.9935713700e-03 0.0000e+00 0.0000e+00
       11  1    1    2    0    0 -3.5467121462e-02 -8.8450788597e-03 +1.4913305194e+00 1.4917785128e+00 5.1099893000e-04 0.0000e+00 1.0000e+00
<vert_displacement>
483.12869033875569
</vert_displacement>
</event>
<event>
 4   1200 +8.5212000e+10 8.88120500e-03 7.81665300e-03            nan
       50 -1    0    0    0    0 +2.6936660811e-02 +4.3106250129e-03 +8.3606477466e+00 8.3606937417e+00 4.9935713700e-03 0.0000e+00 0.0000e+00
       11 -1    0    0    0    0 +6.7067639578e-20 +1.0732712816e-20 +2.0816570905e-17 5.1100000000e-04 5.1099893000e-04 0.0000e+00 1.0000e+00
       50  1    1    2    0    0 +2.5971980619e-02 -3.0181544571e-03 +8.3075337155e+00 8.3075763628e+00 4.9935713700e-03 0.0000e+00 0.0000e+00
       11  1    1    2    0    0 +9.6468019185e-04 +7.3287794700e-03 +5.3114031045e-02 5.3628378962e-02 5.1099893000e-04 0.0000e+00 1.0000e+00
<vert_displacement>
415.41863077723434
</vert_displacement>
</event>
<event>
 4   1200 +8.5212000e+10 1.03731200e-02 7.81665300e-03            nan
       50 -1    0    0    0    0 -2.7974596713e-02 +2.5560890320e-02 +2.3684376507e+01 2.3684407348e+01 4.9935713700e-03 0.0000e+00 0.0000e+00
       11 -1    0    0    0    0 +6.3927272001e-19 -5.8411494002e-19 -5.4123303177e-16 5.1100000000e-04 5.1099893000e-04 0.0000e+00 1.0000e+00
       50  1    1    2    0    0 -3.1906078355e-02 +3.3624739367e-02 +2.3603196556e+01 2.3603242599e+01 4.9935713700e-03 0.0000e+00 0.0000e+00
       11  1    1    2    0    0 +3.9314816425e-03 -8.0638490464e-03 +8.1179951469e-02 8.1675748235e-02 5.1099893000e-04 0.0000e+00 1.0000e+00
<vert_displacement>
32.761682778856795
</vert_displacement>
</event>
<event>
 4   1200 +8.5212000e+10 1.45575700e-02 7.81665300e-03            nan
       50 -1    0    0    0    0 +2.0119462711e-02 -4.1489631644e-03 +9.6520975486e+00 9.6521207011e+00 4.9935713700e-03 0.0000e+00 0.0000e+00
       11 -1    0    0    0    0 -2.0249391427e-19 +4.1757565964e-20 -9.7144294634e-17 5.1100000000e-04 5.1099893000e-04 0.0000e+00 1.0000e+00
       50  1    1    2    0    0 +2.6102233747e-02 -1.6167853406e-02 +9.4654918744e+00 9.4655429895e+00 4.9935713700e-03 0.0000e+00 0.0000e+00
       11  1    1    2    0    0 -5.9827710364e-03 +1.2018890241e-02 +1.8660567418e-01 1.8708871165e-01 5.1099893000e-04 0.0000e+00 1.0000e+00
<vert_displacement>
113.88957963062168
</vert_displacement>
</event>
<event>
 4   1200 +8.5212000e+10 1.88985700e-02 7.81665300e-03            nan
       50 -1    0    0    0    0 +3.5220250756e-02 -2.4620527548e-02 +1.5170432859e+01 1.5170494544e+01 4.9935713700e-03 0.0000e+00 0.0000e+00
       11 -1    0    0    0    0 +1.3048722479e-18 -9.1216395216e-19 +5.6204815131e-16 5.1100000000e-04 5.1099893000e-04 0.0000e+00 1.0000e+00
       50  1    1    2    0    0 +3.7946233201e-02 -4.1969246261e-02 +1.4838023819e+01 1.4838132535e+01 4.9935713700e-03 0.0000e+00 0.0000e+00
       11  1    1    2    0    0 -2.7259824459e-03 +1.7348718713e-02 +3.3240904022e-01 3.3287300906e-01 5.1099893000e-04 0.0000e+00 1.0000e+00
<vert_displacement>
250.72553015168495
</vert_displacement>
</event>
<event>
 4   1200 +8.5212000e+10 4.87396600e-02 7.81665300e-03            nan
       50 -1    0    0    0    0 -3.1119864724e-02 +1.8934026339e-02 +9.3211656805e+00 9.3212381969e+00 4.9935713700e-03 0.0000e+00 0.0000e+00
       11 -1    0    0    0    0 -1.6216325153e-19 +9.8663773218e-20 +4.8571886420e-17 5.1100000000e-04 5.1099893000e-04 0.0000e+00 1.0000e+00
       50  1    1    2    0    0 -2.9005864783e-02 -3.6565384555e-02 +5.1464633486e+00 5.1466774041e+00 4.9935713700e-03 0.0000e+00 0.0000e+00
       11  1    1    2    0    0 -2.1139999406e-03 +5.5499410894e-02 +4.1747023319e+00 4.1750717928e+00 5.1099893000e-04 0.0000e+00 1.0000e+00
<vert_displacement>
488.24400013260924
</vert_displacement>
</event>
<event>
 4   1200 +8.5212000e+10 2.12962600e-02 7.81665300e-03            nan
       50 -1    0    0    0    0 +2.9869536383e-02 -7.1036699767e-03 +1.4723429363e+01 1.4723462222e+01 4.9935713700e-03 0.0000e+00 0.0000e+00
       11 -1    0    0    0    0 -8.0238659257e-19 +1.9082618070e-19 -3.9551609259e-16 5.1100000000e-04 5.1099893000e-04 0.0000e+00 1.0000e+00
       50  1    1    2    0    0 +4.9149907631e-02 -1.1616506220e-02 +1.4291302730e+01 1.4291392841e+01 4.9935713700e-03 0.0000e+00 0.0000e+00
       11  1    1    2    0    0 -1.9280371248e-02 +4.5128362436e-03 +4.3212663290e-01 4.3258038142e-01 5.1099893000e-04 0.0000e+00 1.0000e+00
<vert_displacement>
141.95765127057263
</vert_displacement>
</event>
<event>
 4   1200 +8.5212000e+10 3.12897100e-02 7.81665300e-03            nan
       50 -1    0    0    0    0 +2.6958935483e-03 -2.9124307467e-03 +5.1159509696e+00 5.1159549459e+00 4.9935713700e-03 0.0000e+00 0.0000e+00
       11 -1    0    0    0    0 -1.1700824369e-19 +1.2640647727e-19 -2.2204453812e-16 5.1100000000e-04 5.1099893000e-04 0.0000e+00 1.0000e+00
       50  1    1    2    0    0 +3.0815113769e-02 +9.0359571543e-03 +3.8844276048e+00 3.8845635498e+00 4.9935713700e-03 0.0000e+00 0.0000e+00
       11  1    1    2    0    0 -2.8119220220e-02 -1.1948387901e-02 +1.2315233648e+00 1.2319023962e+00 5.1099893000e-04 0.0000e+00 1.0000e+00
<vert_displacement>
469.71904463446276
</vert_displacement>
</event>
<event>
 4   1200 +8.5212000e+10 1.55392500e-02 7.81665300e-03            nan
       50 -1    0    0    0    0 +1.8440649164e-02 -1.3609326787e-02 +7.7411683456e+00 7.7412038832e+00 4.9935713700e-03 0.0000e+00 0.0000e+00
       11 -1    0    0    0    0 +6.6117744278e-20 -4.8795353153e-20 +2.7755453972e-17 5.1100000000e-04 5.1099893000e-04 0.0000e+00 1.0000e+00
       50  1    1    2    0    0 +2.9265697386e-02 -2.2597962813e-02 +7.5230794708e+00 7.5231719912e+00 4.9935713700e-03 0.0000e+00 0.0000e+00
       11  1    1    2    0    0 -1.0825048222e-02 +8.9886360258e-03 +2.1808887476e-01 2.1854289204e-01 5.1099893000e-04 0.0000e+00 1.0000e+00
<vert_displacement>
151.66215011726564
</vert_displacement>
</event>
<event>
 4   1200 +8.5212000e+10 1.91530200e-02 7.81665300e-03            nan
       50 -1    0    0    0    0 -1.6335516015e-03 -1.6567013995e-02 +1.4027502741e+01 1.4027513508e+01 4.9935713700e-03 0.0000e+00 0.0000e+00
       11 -1    0    0    0    0 +2.4241734562e-20 +2.4585275138e-19 -2.0816667053e-16 5.1100000000e-04 5.1099893000e-04 0.0000e+00 1.0000e+00
       50  1    1    2    0    0 +1.6833646310e-02 -1.4632780602e-02 +1.3684553123e+01 1.3684572212e+01 4.9935713700e-03 0.0000e+00 0.0000e+00
       11  1    1    2    0    0 -1.8467197911e-02 -1.9342333932e-03 +3.4294961772e-01 3.4345229665e-01 5.1099893000e-04 0.0000e+00 1.0000e+00
<vert_displacement>
154.90939201076893
</vert_displacement>
</event>
<event>
 4   1200 +8.5212000e+10 7.50881700e-03 7.81665300e-03            nan
       50 -1    0    0    0    0 -1.2743879823e-02 +9.0584863816e-03 +7.6217105411e+00 7.6217282142e+00 4.9935713700e-03 0.0000e+00 0.0000e+00
       11 -1    0    0    0    0 +3.7126886297e-19 -2.6390188747e-19 -2.2204413771e-16 5.1100000000e-04 5.1099893000e-04 0.0000e+00 1.0000e+00
       50  1    1    2    0    0 -1.5525435678e-02 +4.1823989964e-03 +7.5908142512e+00 7.5908329229e+00 4.9935713700e-03 0.0000e+00 0.0000e+00
       11  1    1    2    0    0 +2.7815558543e-03 +4.8760873852e-03 +3.0896289895e-02 3.1406291254e-02 5.1099893000e-04 0.0000e+00 1.0000e+00
<vert_displacement>
408.11091107286239
</vert_displacement>
</event>
<event>
 4   1200 +8.5212000e+10 1.13760400e-02 7.81665300e-03            nan
       50 -1    0    0    0    0 -1.5004474180e-02 +1.3802120768e-02 +1.2297581497e+01 1.2297599410e+01 4.9935713700e-03 0.0000e+00 0.0000e+00
       11 -1    0    0    0    0 -1.1598752696e-18 +1.0669309937e-18 +9.5062715851e-16 5.1100000000e-04 5.1099893000e-04 0.0000e+00 1.0000e+00
       50  1    1    2    0    0 -1.8237049454e-02 +4.0324007090e-03 +1.2194488579e+01 1.2194503905e+01 4.9935713700e-03 0.0000e+00 0.0000e+00
       11  1    1    2    0    0 +3.2325752742e-03 +9.7697200589e-03 +1.0309291829e-01 1.0360650507e-01 5.1099893000e-04 0.0000e+00 1.0000e+00
<vert_displacement>
237.81040207423536
</vert_displacement>
</event>
<event>
 4   1200 +8.5212000e+10 4.83642500e-02 7.81665300e-03            nan
       50 -1    0    0    0    0 +9.2610750207e-02 -5.2901085783e-02 +3.2556601829e+01 3.2556776911e+01 4.9935713700e-03 0.0000e+00 0.0000e+00
       11 -1    0    0    0    0 +1.4882695521e-17 -8.5012890045e-18 +5.2318979291e-15 5.1100000000e-04 5.1099893000e-04 0.0000e+00 1.0000e+00
       50  1    1    2    0    0 +7.5541894643e-02 -9.5955047240e-02 +3.0107871975e+01 3.0108120063e+01 4.9935713700e-03 0.0000e+00 0.0000e+00
       11  1    1    2    0    0 +1.7068855564e-02 +4.3053961456e-02 +2.4487298541e+00 2.4491678482e+00 5.1099893000e-04 0.0000e+00 1.0000e+00
<vert_displacement>
375.41948543131599
</vert_displacement>
</event>
<event>
 4   1200 +8.5212000e+10 7.37898800e-03 7.81665300e-03            nan
       50 -1    0    0    0    0 +2.5872026903e-02 +2.0961995204e-02 +1.0479808003e+01 1.0479862093e+01 4.9935713700e-03 0.0000e+00 0.0000e+00
       11 -1    0    0    0    0 +3.5973647738e-19 +2.9146515431e-19 +1.4571603644e-16 5.1100000000e-04 5.1099893000e-04 0.0000e+00 1.0000e+00
       50  1    1    2    0    0 +2.5438336698e-02 +2.6324624839e-02 +1.0450838192e+01 1.0450903499e+01 4.9935713700e-03 0.0000e+00 0.0000e+00
       11  1    1    2    0    0 +4.3369020433e-04 -5.3626296355e-03 +2.8969811388e-02 2.9469594085e-02 5.1099893000e-04 0.0000e+00 1.0000e+00
<vert_displacement>
396.14737324737052
</vert_displacement>
</event>
<event>
 4   1200 +8.5212000e+10 1.70224000e-02 7.81665300e-03            nan
       50 -1    0    0    0    0 +1.4417979548e-02 -1.9185908783e-02 +1.1958709966e+01 1.1958735090e+01 4.9935713700e-03 0.0000e+00 0.0000e+00
       11 -1    0    0    0    0 +3.0117016398e-19 -4.0076511936e-19 +2.4979967751e-16 5.1100000000e-04 5.1099893000e-04 0.0000e+00 1.0000e+00
       50  1    1    2    0    0 +2.4291994290e-02 -6.0753791282e-03 +1.1693696926e+01 1.1693724802e+01 4.9935713700e-03 0.0000e+00 0.0000e+00
       11  1    1    2    0    0 -9.8740147425e-03 -1.3110529655e-02 +2.6501303934e-01 2.6552128784e-01 5.1099893000e-04 0.0000e+00 1.0000e+00
<vert_displacement>
136.72932204092271
</vert_displacement>
</event>
<event>
 4   1200 +8.5212000e+10 8.45068400e-03 7.81665300e-03            nan
       50 -1    0    0    0    0 -8.1651477232e-03 -4.9515593929e-03 +5.1460493527e+00 5.1460606354e+00 4.9935713700e-03 0.0000e+00 0.0000e+00
       11 -1    0    0    0    0 -1.6514706428e-19 -1.0014950434e-19 +1.0408322936e-16 5.1100000000e-04 5.1099893000e-04 0.0000e+00 1.0000e+00
       50  1    1    2    0    0 -1.4908154750e-02 -5.0580688994e-03 +5.1001449433e+00 5.1001716849e+00 4.9935713700e-03 0.0000e+00 0.0000e+00
       11  1    1    2    0    0 +6.7430070271e-03 +1.0650950656e-04 +4.5904409382e-02 4.6399950525e-02 5.1099893000e-04 0.0000e+00 1.0000e+00
<vert_displacement>
276.53992104129378
</vert_displacement>
</event>
<event>
 4   1200 +8.5212000e+10 1.00853400e-02 7.81665300e-03            nan
       50 -1    0    0    0    0 -2.4522818845e-02 -1.0235228196e-02 +1.5864283328e+01 1.5864306369e+01 4.9935713700e-03 0.0000e+00 0.0000e+00
       11 -1    0    0    0    0 +8.5808351231e-20 +3.5814318961e-20 -5.5511073357e-17 5.1100000000e-04 5.1099893000e-04 0.0000e+00 1.0000e+00
       50  1    1    2    0    0 -3.2718954163e-02 -1.2956935605e-02 +1.5788780977e+01 1.5788820984e+01 4.9935713700e-03 0.0000e+00 0.0000e+00
       11  1    1    2    0    0 +8.1961353179e-03 +2.7217074093e-03 +7.5502351292e-02 7.5996384756e-02 5.1099893000e-04 0.0000e+00 1.0000e+00
<vert_displacement>
443.02752179360937
</vert_displacement>
</event>
<event>
 4   1200 +8.5212000e+10 3.35125300e-02 7.81665300e-03            nan
       50 -1    0    0    0    0 -1.9838366668e-02 +5.0456279425e-02 +1.9448554591e+01 1.9448630800e+01 4.9935713700e-03 0.0000e+00 0.0000e+00
       11 -1    0    0    0    0 -8.4935331948e-19 +2.1602185873e-18 +8.3266403311e-16 5.1100000000e-04 5.1099893000e-04 0.0000e+00 1.0000e+00
       50  1    1    2    0    0 -3.2453741473e-02 +7.7631833904e-02 +1.8306825847e+01 1.8307019896e+01 4.9935713700e-03 0.0000e+00 0.0000e+00
       11  1    1    2    0    0 +1.2615374805e-02 -2.7175554479e-02 +1.1417287433e+00 1.1421219036e+00 5.1099893000e-04 0.0000e+00 1.0000e+00
<vert_displacement>
321.24516673635395
</vert_displacement>
</event>
<event>
 4   1200 +8.5212000e+10 2.38349900e-02 7.81665300e-03            nan
       50 -1    0    0    0    0 +1.5821979729e-02 +8.7513526419e-03 +2.3053173486e+01 2.3053181117e+01 4.9935713700e-03 0.0000e+00 0.0000e+00
       11 -1    0    0    0    0 -7.6197408561e-20 -4.2145825247e-20 -1.1102226831e-16 5.1100000000e-04 5.1099893000e-04 0.0000e+00 1.0000e+00
       50  1    1    2    0    0 -1.2603349682e-03 +2.4792482828e-02 +2.2508821016e+01 2.2508835259e+01 4.9935713700e-03 0.0000e+00 0.0000e+00
       11  1    1    2    0    0 +1.7082314697e-02 -1.6041130186e-02 +5.4435246965e-01 5.4485685796e-01 5.1099893000e-04 0.0000e+00 1.0000e+00
<vert_displacement>
216.43710833020191
</vert_displacement>
</event>
<event>
 4   1200 +8.5212000e+10 1.02659300e-02 7.81665300e-03            nan
       50 -1    0    0    0    0 -6.0598907078e-04 -1.9305192062e-02 +2.0526279482e+01 2.0526289177e+01 4.9935713700e-03 0.0000e+00 0.0000e+00
       11 -1    0    0    0    0 +7.3747467192e-21 +2.3493971870e-19 -2.4980006995e-16 5.1100000000e-04 5.1099893000e-04 0.0000e+00 1.0000e+00
       50  1    1    2    0    0 -8.9396997333e-03 -1.5919679670e-02 +2.0447254094e+01 2.0447262855e+01 4.9935713700e-03 0.0000e+00 0.0000e+00
       11  1    1    2    0    0 +8.3337106625e-03 -3.3855123915e-03 +7.9025388437e-02 7.9537321838e-02 5.1099893000e-04 0.0000e+00 1.0000e+00
<vert_displacement>
331.18089794277830
</vert_displacement>
</event>
<event>
 4   1200 +8.5212000e+10 3.56213300e-02 7.81665300e-03            nan
       50 -1    0    0    0    0 -6.9344803895e-03 -1.0435047044e-02 +5.6406465983e+00 5.6406627234e+00 4.9935713700e-03 0.0000e+00 0.0000e+00
       11 -1    0    0    0    0 +5.4595165048e-19 +8.2155126795e-19 -4.4408811434e-16 5.1100000000e-04 5.1099893000e-04 0.0000e+00 1.0000e+00
       50  1    1    2    0    0 +1.8205272525e-02 -3.3919166447e-02 +3.8568323830e+00 3.8570277298e+00 4.9935713700e-03 0.0000e+00 0.0000e+00
       11  1    1    2    0    0 -2.5139752914e-02 +2.3484119403e-02 +1.7838142153e+00 1.7841459937e+00 5.1099893000e-04 0.0000e+00 1.0000e+00
<vert_displacement>
499.10090306054695
</vert_displacement>
</event>
<event>
 4   1200 +8.5212000e+10 1.45769200e-02 7.81665300e-03            nan
       50 -1    0    0    0    0 -2.3002393925e-02 -2.0132443081e-02 +1.3438258830e+01 1.3438294526e+01 4.9935713700e-03 0.0000e+00 0.0000e+00
       11 -1    0    0    0    0 +1.7816008761e-19 +1.5593150152e-19 -1.0408313928e-16 5.1100000000e-04 5.1099893000e-04 0.0000e+00 1.0000e+00
       50  1    1    2    0    0 -1.7044979895e-02 -7.3735217919e-03 +1.3252185262e+01 1.3252199216e+01 4.9935713700e-03 0.0000e+00 0.0000e+00
       11  1    1    2    0    0 -5.9574140300e-03 -1.2758921289e-02 +1.8607356802e-01 1.8660630935e-01 5.1099893000e-04 0.0000e+00 1.0000e+00
<vert_displacement>
185.50737512582049
</vert_displacement>
</event>
<event>
 4   1200 +8.5212000e+10 2.85842500e-02 7.81665300e-03            nan
       50 -1    0    0    0    0 -1.0958536700e-02 +2.1838261015e-02 +1.0717618765e+01 1.0717647779e+01 4.9935713700e-03 0.0000e+00 0.0000e+00
       11 -1    0    0    0    0 +6.0306247530e-19 -1.2017878030e-18 -5.8980444914e-16 5.1100000000e-04 5.1099893000e-04 0.0000e+00 1.0000e+00
       50  1    1    2    0    0 -3.5717651311e-02 +3.1776149319e-02 +9.8762742061e+00 9.8763911731e+00 4.9935713700e-03 0.0000e+00 0.0000e+00
       11  1    1    2    0    0 +2.4759114611e-02 -9.9378883036e-03 +8.4134455858e-01 8.4176760614e-01 5.1099893000e-04 0.0000e+00 1.0000e+00
<vert_displacement>
337.51778096307265
</vert_displacement>
</event>
<event>
 4   1200 +8.5212000e+10 1.64863700e-02 7.81665300e-03            nan
       50 -1    0    0    0    0 -8.2290554616e-03 -2.1290659723e-03 +2.7627301302e+00 2.7627477189e+00 4.9935713700e-03 0.0000e+00 0.0000e+00
       11 -1    0    0    0    0 -4.3402926327e-19 -1.1229441091e-19 +1.4571608232e-16 5.1100000000e-04 5.1099893000e-04 0.0000e+00 1.0000e+00
       50  1    1    2    0    0 -2.3095149324e-02 -6.9327021597e-04 +2.4949092461e+00 2.4950212321e+00 4.9935713700e-03 0.0000e+00 0.0000e+00
       11  1    1    2    0    0 +1.4866093863e-02 -1.4357957564e-03 +2.6782088408e-01 2.6823748680e-01 5.1099893000e-04 0.0000e+00 1.0000e+00
<vert_displacement>
294.86122212044990
</vert_displacement>
</event>
<event>
 4   1200 +8.5212000e+10 3.37396800e-02 7.81665300e-03            nan
       50 -1    0    0    0    0 -5.6183524627e-02 +4.8473180678e-02 +1.9937426441e+01 1.9937565153e+01 4.9935713700e-03 0.0000e+00 0.0000e+00
       11 -1    0    0    0    0 +6.4918011078e-18 -5.6008990200e-18 -2.3036968206e-15 5.1100000000e-04 5.1099893000e-04 0.0000e+00 1.0000e+00
       50  1    1    2    0    0 -7.2177739115e-02 +1.8408026555e-02 +1.8780770703e+01 1.8780919083e+01 4.9935713700e-03 0.0000e+00 0.0000e+00
       11  1    1    2    0    0 +1.5994214488e-02 +3.0065154123e-02 +1.1566557378e+00 1.1571570703e+00 5.1099893000e-04 0.0000e+00 1.0000e+00
<vert_displacement>
334.91187789460668
</vert_displacement>
</event>
<event>
 4   1200 +8.5212000e+10 2.82250000e-02 7.81665300e-03            nan
       50 -1    0    0    0    0 +2.6190639139e-02 -8.1150571833e-03 +9.8230711372e+00 9.8231106736e+00 4.9935713700e-03 0.0000e+00 0.0000e+00
       11 -1    0    0    0    0 -8.5103063642e-19 +2.6368819190e-19 -3.1918787614e-16 5.1100000000e-04 5.1099893000e-04 0.0000e+00 1.0000e+00
       50  1    1    2    0    0 +5.1585945120e-02 -1.0643094092e-02 +8.9984785505e+00 8.9986340933e+00 4.9935713700e-03 0.0000e+00 0.0000e+00
       11  1    1    2    0    0 -2.5395305981e-02 +2.5280369082e-03 +8.2459258672e-01 8.2498758035e-01 5.1099893000e-04 0.0000e+00 1.0000e+00
<vert_displacement>
26.673160093927688
</vert_displacement>
</event>
<event>
 4   1200 +8.5212000e+10 1.17580100e-02 7.81665300e-03            nan
       50 -1    0    0    0    0 +1.7628119743e-02 -1.1944206939e-02 +1.3038196026e+01 1.3038214370e+01 4.9935713700e-03 0.0000e+00 0.0000e+00
       11 -1    0    0    0    0 +8.6310966723e-19 -5.8481339058e-19 +6.3837738781e-16 5.1100000000e-04 5.1099893000e-04 0.0000e+00 1.0000e+00
       50  1    1    2    0    0 +1.7332851400e-02 -1.1977745245e-03 +1.2926364825e+01 1.2926377465e+01 4.9935713700e-03 0.0000e+00 0.0000e+00
       11  1    1    2    0    0 +2.9526834306e-04 -1.0746432414e-02 +1.1183120148e-01 1.1234790491e-01 5.1099893000e-04 0.0000e+00 1.0000e+00
<vert_displacement>
352.76004032859714
</vert_displacement>
</event>
<event>
 4   1200 +8.5212000e+10 1.11451800e-02 7.81665300e-03            nan
       50 -1    0    0    0    0 +1.6727541437e-02 -1.0585923246e-02 +7.9676445121e+00 7.9676706684e+00 4.9935713700e-03 0.0000e+00 0.0000e+00
       11 -1    0    0    0    0 +1.5150410885e-18 -9.5878457322e-19 +7.2164273872e-16 5.1100000000e-04 5.1099893000e-04 0.0000e+00 1.0000e+00
       50  1    1    2    0    0 +1.1495406326e-02 -1.8516395634e-03 +7.8693004187e+00 7.8693106171e+00 4.9935713700e-03 0.0000e+00 0.0000e+00
       11  1    1    2    0    0 +5.2321351111e-03 -8.7342836826e-03 +9.8344093458e-02 9.8871051310e-02 5.1099893000e-04 0.0000e+00 1.0000e+00
<vert_displacement>
477.96447572748195
</vert_displacement>
</event>
<event>
 4   1200 +8.5212000e+10 7.55125100e-03 7.81665300e-03            nan
       50 -1    0    0    0    0 -1.4758260743e-02 -7.6664926190e-03 +4.3201263581e+00 4.3201612548e+00 4.9935713700e-03 0.0000e+00 0.0000e+00
       11 -1    0    0    0    0 +1.2089154690e-18 +6.2799686776e-19 -3.5388096696e-16 5.1100000000e-04 5.1099893000e-04 0.0000e+00 1.0000e+00
       50  1    1    2    0    0 -9.4120608876e-03 -5.4546613611e-03 +4.2885167334e+00 4.2885334379e+00 4.9935713700e-03 0.0000e+00 0.0000e+00
       11  1    1    2    0    0 -5.3461998557e-03 -2.2118312579e-03 +3.1609624741e-02 3.2138816820e-02 5.1099893000e-04 0.0000e+00 1.0000e+00
<vert_displacement>
125.66860748466358
</vert_displacement>
</event>
<event>
 4   1200 +8.5212000e+10 5.57598000e-03 7.81665300e-03            nan
       50 -1    0    0    0    0 -1.1630107557e-02 +2.5412218611e-02 +1.5911173467e+01 1.5911198794e+01 4.9935713700e-03 0.0000e+00 0.0000e+00
       11 -1    0    0    0    0 +1.9983305127e-18 -4.3664266727e-18 -2.7339199809e-15 5.1100000000e-04 5.1099893000e-04 0.0000e+00 1.0000e+00
       50  1    1    2    0    0 -9.2683566627e-03 +2.6176362778e-02 +1.5905148198e+01 1.5905173222e+01 4.9935713700e-03 0.0000e+00 0.0000e+00
       11  1    1    2    0    0 -2.3617508947e-03 -7.6414416776e-04 +6.0252687634e-03 6.5365715154e-03 5.1099893000e-04 0.0000e+00 1.0000e+00
<vert_displacement>
463.37425660786789
</vert_displacement>
</event>
<event>
 4   1200 +8.5212000e+10 1.61797300e-02 7.81665300e-03            nan
       50 -1    0    0    0    0 -6.5827305878e-03 -1.8420414960e-02 +9.0856524728e+00 9.0856749026e+00 4.9935713700e-03 0.0000e+00 0.0000e+00
       11 -1    0    0    0    0 -2.0612138756e-19 -5.7678822493e-19 +2.8449399070e-16 5.1100000000e-04 5.1099893000e-04 0.0000e+00 1.0000e+00
       50  1    1    2    0    0 -1.0148891619e-02 -3.0090329474e-03 +8.8476663892e+00 8.8476741308e+00 4.9935713700e-03 0.0000e+00 0.0000e+00
       11  1    1    2    0    0 +3.5661610312e-03 -1.5411382012e-02 +2.3798608357e-01 2.3851177181e-01 5.1099893000e-04 0.0000e+00 1.0000e+00
<vert_displacement>
89.911736317229469
</vert_displacement>
</event>
<event>
 4   1200 +8.5212000e+10 8.72107700e-03 7.81665300e-03            nan
       50 -1    0    0    0    0 -1.6144473881e-02 -1.5074828795e-02 +6.2383452288e+00 6.2383863318e+00 4.9935713700e-03 0.0000e+00 0.0000e+00
       11 -1    0    0    0    0 -1.4186298964e-18 -1.3246391904e-18 +5.4816918227e-16 5.1100000000e-04 5.1099893000e-04 0.0000e+00 1.0000e+00
       50  1    1    2    0    0 -9.0723470525e-03 -1.6666238064e-02 +6.1879249762e+00 6.1879560857e+00 4.9935713700e-03 0.0000e+00 0.0000e+00
       11  1    1    2    0    0 -7.0721268282e-03 +1.5914092692e-03 +5.0420252616e-02 5.0941246109e-02 5.1099893000e-04 0.0000e+00 1.0000e+00
<vert_displacement>
163.43226655851146
</vert_displacement>
</event>
<event>
 4   1200 +8.5212000e+10 3.51423000e-02 7.81665300e-03            nan
       50 -1    0    0    0    0 -7.9706573494e-03 -9.0274665844e-02 +4.2898776007e+01 4.2898872023e+01 4.9935713700e-03 0.0000e+00 0.0000e+00
       11 -1    0    0    0    0 +1.5264768385e-18 +1.7288685296e-17 -8.2156320496e-15 5.1100000000e-04 5.1099893000e-04 0.0000e+00 1.0000e+00
       50  1    1    2    0    0 -2.1382847759e-02 -1.1971063867e-01 +4.1680058761e+01 4.1680236457e+01 4.9935713700e-03 0.0000e+00 0.0000e+00
       11  1    1    2    0    0 +1.3412190410e-02 +2.9435972823e-02 +1.2187172460e+00 1.2191465663e+00 5.1099893000e-04 0.0000e+00 1.0000e+00
<vert_displacement>
458.23494523862217
</vert_displacement>
</event>
<event>
 4   1200 +8.5212000e+10 1.12011000e-02 7.81665300e-03            nan
       50 -1    0    0    0    0 -2.6862956962e-02 -1.8093896523e-02 +8.1393440385e+00 8.1394100105e+00 4.9935713700e-03 0.0000e+00 0.0000e+00
       11 -1    0    0    0    0 -2.4732896192e-18 -1.6659166191e-18 +7.4939460856e-16 5.1100000000e-04 5.1099893000e-04 0.0000e+00 -1.0000e+00
       50  1    1    2    0    0 -1.7950734735e-02 -1.2690770220e-02 +8.0397913915e+00 8.0398229980e+00 4.9935713700e-03 0.0000e+00 0.0000e+00
       11  1    1    2    0    0 -8.9122222266e-03 -5.4031263031e-03 +9.9552646910e-02 1.0009801250e-01 5.1099893000e-04 0.0000e+00 -1.0000e+00
<vert_displacement>
231.45525117980429
</vert_displacement>
</event>
<event>
 4   1200 +8.5212000e+10 1.03516000e-02 7.81665300e-03            nan
       50 -1    0    0    0    0 +3.5469326022e-02 +3.1919951100e-02 +3.1462858519e+01 3.1462895100e+01 4.9935713700e-03 0.0000e+00 0.0000e+00
       11 -1    0    0    0    0 +2.5657737064e-18 +2.3090196636e-18 +2.2759545830e-15 5.1100000000e-04 5.1099893000e-04 0.0000e+00 1.0000e+00
       50  1    1    2    0    0 +4.3463842276e-02 +3.5942430595e-02 +3.1382187032e+01 3.1382238110e+01 4.9935713700e-03 0.0000e+00 0.0000e+00
       11  1    1    2    0    0 -7.9945162535e-03 -4.0224794952e-03 +8.0671486702e-02 8.1167989491e-02 5.1099893000e-04 0.0000e+00 1.0000e+00
<vert_displacement>
313.20202608531514
</vert_displacement>
</event>
<event>
 4   1200 +8.5212000e+10 2.80056800e-02 7.81665300e-03            nan
       50 -1    0    0    0    0 +3.3279854060e-02 +7.6496101516e-02 +3.7984890425e+01 3.7984982358e+01 4.9935713700e-03 0.0000e+00 0.0000e+00
       11 -1    0    0    0    0 -2.3709606272e-18 -5.4498209189e-18 -2.7061620963e-15 5.1100000000e-04 5.1099893000e-04 0.0000e+00 1.0000e+00
       50  1    1    2    0    0 +5.7712536740e-02 +8.6350039873e-02 +3.7226658668e+01 3.7226803887e+01 4.9935713700e-03 0.0000e+00 0.0000e+00
       11  1    1    2    0    0 -2.4432682680e-02 -9.8539383564e-03 +7.5823175665e-01 7.5868947139e-01 5.1099893000e-04 0.0000e+00 1.0000e+00
<vert_displacement>
488.19126202019345
</vert_displacement>
</event>
<event>
 4   1200 +8.5212000e+10 9.03292900e-03 7.81665300e-03            nan
       50 -1    0    0    0    0 -2.1110925322e-02 +2.1713505297e-02 +1.1074550712e+01 1.1074593246e+01 4.9935713700e-03 0.0000e+00 0.0000e+00
       11 -1    0    0    0    0 +2.2486336115e-19 -2.3128175145e-19 -1.1796075531e-16 5.1100000000e-04 5.1099893000e-04 0.0000e+00 1.0000e+00
       50  1    1    2    0    0 -2.5265595479e-02 +1.5399187479e-02 +1.1018833025e+01 1.1018873883e+01 4.9935713700e-03 0.0000e+00 0.0000e+00
       11  1    1    2    0    0 +4.1546701567e-03 +6.3143178183e-03 +5.5717687493e-02 5.6230362911e-02 5.1099893000e-04 0.0000e+00 1.0000e+00
<vert_displacement>
183.29553294810844
</vert_displacement>
</event>
<event>
 4   1200 +8.5212000e+10 9.51382100e-03 7.81665300e-03            nan
       50 -1    0    0    0    0 +6.8191622751e-04 -3.0135170316e-03 +1.8135041866e+00 1.8135136936e+00 4.9935713700e-03 0.0000e+00 0.0000e+00
       11 -1    0    0    0    0 -1.6959593417e-20 +7.4947657129e-20 -4.5102744916e-17 5.1100000000e-04 5.1099893000e-04 0.0000e+00 1.0000e+00
       50  1    1    2    0    0 +1.3131614723e-03 +5.1685781463e-03 +1.7468503382e+00 1.7468656155e+00 4.9935713700e-03 0.0000e+00 0.0000e+00
       11  1    1    2    0    0 -6.3124524480e-04 -8.1820951779e-03 +6.6653848363e-02 6.7159078118e-02 5.1099893000e-04 0.0000e+00 1.0000e+00
<vert_displacement>
447.47542713391942
</vert_displacement>
</event>
<event>
 4   1200 +8.5212000e+10 1.17901200e-02 7.81665300e-03            nan
       50 -1    0    0    0    0 +1.1631487537e-02 +1.2704104179e-02 +9.7960170343e+00 9.7960334502e+00 4.9935713700e-03 0.0000e+00 0.0000e+00
       11 -1    0    0    0    0 +1.8949734949e-19 +2.0697215742e-19 +1.5959431308e-16 5.1100000000e-04 5.1099893000e-04 0.0000e+00 1.0000e+00
       50  1    1    2    0    0 +1.2562868458e-02 +2.3184778174e-02 +9.6830756592e+00 9.6831128526e+00 4.9935713700e-03 0.0000e+00 0.0000e+00
       11  1    1    2    0    0 -9.3138092093e-04 -1.0480673995e-02 +1.1294137510e-01 1.1343159757e-01 5.1099893000e-04 0.0000e+00 1.0000e+00
<vert_displacement>
289.76681918546132
</vert_displacement>
</event>
<event>
 4   1200 +8.5212000e+10 3.71891500e-02 7.81665300e-03            nan
       50 -1    0    0    0    0 +9.3738037609e-04 +8.1096935330e-02 +6.7744955322e+01 6.7745004053e+01 4.9935713700e-03 0.0000e+00 0.0000e+00
       11 -1    0    0    0    0 -1.6898241031e-20 -1.4619418061e-18 -1.2212444519e-15 5.1100000000e-04 5.1099893000e-04 0.0000e+00 1.0000e+00
       50  1    1    2    0    0 -2.8543850486e-02 +1.0161093303e-01 +6.6388905492e+01 6.6388989576e+01 4.9935713700e-03 0.0000e+00 0.0000e+00
       11  1    1    2    0    0 +2.9481230862e-02 -2.0513997704e-02 +1.3560498305e+00 1.3565254775e+00 5.1099893000e-04 0.0000e+00 1.0000e+00
<vert_displacement>
110.60810564811926
</vert_displacement>
</event>
<event>
 4   1200 +8.5212000e+10 2.35259500e-02 7.81665300e-03            nan
       50 -1    0    0    0    0 +5.1744632275e-02 -2.6312525213e-02 +1.7944873368e+01 1.7944967957e+01 4.9935713700e-03 0.0000e+00 0.0000e+00
       11 -1    0    0    0    0 +2.3609940307e-18 -1.2005827896e-18 +8.1878519646e-16 5.1100000000e-04 5.1099893000e-04 0.0000e+00 1.0000e+00
       50  1    1    2    0    0 +6.9213247337e-02 -3.8466027058e-02 +1.7411776608e+01 1.7411957377e+01 4.9935713700e-03 0.0000e+00 0.0000e+00
       11  1    1    2    0    0 -1.7468615063e-02 +1.2153501844e-02 +5.3309675915e-01 5.3352157956e-01 5.1099893000e-04 0.0000e+00 1.0000e+00
<vert_displacement>
304.55343335993183
</vert_displacement>
</event>
<event>
 4   1200 +8.5212000e+10 1.46056300e-02 7.81665300e-03            nan
       50 -1    0    0    0    0 +6.2563856218e-03 +4.8730013248e-03 +2.0262847407e+00 2.0263064119e+00 4.9935713700e-03 0.0000e+00 0.0000e+00
       11 -1    0    0    0    0 +5.1418712536e-19 +4.0049234407e-19 +1.6653217832e-16 5.1100000000e-04 5.1099893000e-04 0.0000e+00 1.0000e+00
       50  1    1    2    0    0 +1.3660986538e-02 +1.5503674517e-02 +1.8207727913e+00 1.8208968888e+00 4.9935713700e-03 0.0000e+00 0.0000e+00
       11  1    1    2    0    0 -7.4046009163e-03 -1.0630673192e-02 +2.0551194947e-01 2.0592052307e-01 5.1099893000e-04 0.0000e+00 1.0000e+00
<vert_displacement>
154.02032669954667
</vert_displacement>
</event>
<event>
 4   1200 +8.5212000e+10 3.38642400e-02 7.81665300e-03            nan
       50 -1    0    0    0    0 +5.5490608558e-02 +2.0160039540e-02 +3.2993327157e+01 3.2993380358e+01 4.9935713700e-03 0.0000e+00 0.0000e+00
       11 -1    0    0    0    0 -3.2210095179e-18 -1.1702102559e-18 -1.9151316513e-15 5.1100000000e-04 5.1099893000e-04 0.0000e+00 1.0000e+00
       50  1    1    2    0    0 +6.0359342283e-02 -1.3335125196e-02 +3.1856412673e+01 3.1856473038e+01 4.9935713700e-03 0.0000e+00 0.0000e+00
       11  1    1    2    0    0 -4.8687337250e-03 +3.3495164736e-02 +1.1369144838e+00 1.1374183203e+00 5.1099893000e-04 0.0000e+00 1.0000e+00
<vert_displacement>
5.7284104150256852
</vert_displacement>
</event>
<event>
 4   1200 +8.5212000e+10 3.90726300e-02 7.81665300e-03            nan
       50 -1    0    0    0    0 +5.3080620368e-02 +2.4336246141e-02 +1.8443486343e+01 1.8443579458e+01 4.9935713700e-03 0.0000e+00 0.0000e+00
       11 -1    0    0    0    0 +6.9895479127e-18 +3.2045472950e-18 +2.4286006942e-15 5.1100000000e-04 5.1099893000e-04 0.0000e+00 1.0000e+00
       50  1    1    2    0    0 +3.4436522069e-02 -1.3919431036e-02 +1.6833370489e+01 1.6833412208e+01 4.9935713700e-03 0.0000e+00 0.0000e+00
       11  1    1    2    0    0 +1.8644098299e-02 +3.8255677177e-02 +1.6101158546e+00 1.6106782502e+00 5.1099893000e-04 0.0000e+00 1.0000e+00
<vert_displacement>
9.7484751252819528
</vert_displacement>
</event>
<event>
 4   1200 +8.5212000e+10 2.41242100e-02 7.81665300e-03            nan
       50 -1    0    0    0    0 +1.5725438181e-02 -2.8670355688e-03 +1.1776492317e+01 1.1776504224e+01 4.9935713700e-03 0.0000e+00 0.0000e+00
       11 -1    0    0    0    0 +1.9457898984e-19 -3.5475315752e-20 +1.4571663775e-16 5.1100000000e-04 5.1099893000e-04 0.0000e+00 1.0000e+00
       50  1    1    2    0    0 +7.8738412755e-03 -2.5240288508e-02 +1.1203484048e+01 1.1203516359e+01 4.9935713700e-03 0.0000e+00 0.0000e+00
       11  1    1    2    0    0 +7.8515969054e-03 +2.2373252940e-02 +5.7300826962e-01 5.7349886503e-01 5.1099893000e-04 0.0000e+00 1.0000e+00
<vert_displacement>
75.403156300939244
</vert_displacement>
</event>
<event>
 4   1200 +8.5212000e+10 3.15856700e-02 7.81665300e-03            nan
       50 -1    0    0    0    0 +3.1851345607e-02 +3.7560296813e-02 +1.6674689127e+01 1.6674762598e+01 4.9935713700e-03 0.0000e+00 0.0000e+00
       11 -1    0    0    0    0 -7.8730831208e-18 -9.2842337809e-18 -4.1216850030e-15 5.1100000000e-04 5.1099893000e-04 0.0000e+00 1.0000e+00
       50  1    1    2    0    0 +2.7948312758e-02 +6.6403636437e-02 +1.5661128587e+01 1.5661295096e+01 4.9935713700e-03 0.0000e+00 0.0000e+00
       11  1    1    2    0    0 +3.9030328484e-03 -2.8843339624e-02 +1.0135605404e+00 1.0139785018e+00 5.1099893000e-04 0.0000e+00 1.0000e+00
<vert_displacement>
122.39442501207991
</vert_displacement>
</event>
<event>
 4   1200 +8.5212000e+10 1.35738900e-02 7.81665300e-03            nan
       50 -1    0    0    0    0 +6.7149965547e-02 -2.2150637722e-02 +2.4653009875e+01 2.4653111783e+01 4.9935713700e-03 0.0000e+00 0.0000e+00
       11 -1    0    0    0    0 +9.2610533355e-18 -3.0549269190e-18 +3.4000440279e-15 5.1100000000e-04 5.1099893000e-04 0.0000e+00 1.0000e+00
       50  1    1    2    0    0 +5.4211390894e-02 -2.3677753618e-02 +2.4496155173e+01 2.4496227112e+01 4.9935713700e-03 0.0000e+00 0.0000e+00
       11  1    1    2    0    0 +1.2938574653e-02 +1.5271158954e-03 +1.5685470113e-01 1.5739567079e-01 5.1099893000e-04 0.0000e+00 1.0000e+00
<vert_displacement>
378.14090219822168
</vert_displacement>
</event>
<event>
 4   1200 +8.5212000e+10 1.06236400e-02 7.81665300e-03            nan
       50 -1    0    0    0    0 -6.2853249230e-02 +1.0356081380e-02 +1.9452395742e+01 1.9452500683e+01 4.9935713700e-03 0.0000e+00 0.0000e+00
       11 -1    0    0    0    0 +2.8698059094e-18 -4.7284657368e-19 -8.8817365749e-16 5.1100000000e-04 5.1099893000e-04 0.0000e+00 1.0000e+00
       50  1    1    2    0    0 -7.1166281207e-02 +6.5552961971e-03 +1.9365950477e+01 1.9366082991e+01 4.9935713700e-03 0.0000e+00 0.0000e+00
       11  1    1    2    0    0 +8.3130319776e-03 +3.8007851831e-03 +8.6445265258e-02 8.6928691892e-02 5.1099893000e-04 0.0000e+00 1.0000e+00
<vert_displacement>
427.24081473008818
</vert_displacement>
</event>
<event>
 4   1200 +8.5212000e+10 1.18193100e-02 7.81665300e-03            nan
       50 -1    0    0    0    0 -9.7505753212e-03 -1.6156624152e-02 +9.2096793163e+00 9.2097000035e+00 4.9935713700e-03 0.0000e+00 0.0000e+00
       11 -1    0    0    0    0 -5.8771267317e-20 -9.7383512841e-20 +5.5511034700e-17 5.1100000000e-04 5.1099893000e-04 0.0000e+00 1.0000e+00
       50  1    1    2    0    0 -4.5862326172e-03 -6.5063150326e-03 +9.0959977668e+00 9.0960026206e+00 4.9935713700e-03 0.0000e+00 0.0000e+00
       11  1    1    2    0    0 -5.1643427040e-03 -9.6503091199e-03 +1.1368154947e-01 1.1420838284e-01 5.1099893000e-04 0.0000e+00 1.0000e+00
<vert_displacement>
498.01531671772068
</vert_displacement>
</event>
<event>
 4   1200 +8.5212000e+10 1.14753200e-02 7.81665300e-03            nan
       50 -1    0    0    0    0 +2.2899686710e-02 +5.8168939819e-03 +7.3743375133e+00 7.3743770535e+00 4.9935713700e-03 0.0000e+00 0.0000e+00
       11 -1    0    0    0    0 -1.3574851818e-18 -3.4482338055e-19 -4.3714807224e-16 5.1100000000e-04 5.1099893000e-04 0.0000e+00 1.0000e+00
       50  1    1    2    0    0 +1.3852518094e-02 +1.8877694042e-04 +7.2683848105e+00 7.2683997288e+00 4.9935713700e-03 0.0000e+00 0.0000e+00
       11  1    1    2    0    0 +9.0471686165e-03 +5.6281170415e-03 +1.0595270277e-01 1.0648832473e-01 5.1099893000e-04 0.0000e+00 1.0000e+00
<vert_displacement>
186.34593762802325
</vert_displacement>
</event>
<event>
 4   1200 +8.5212000e+10 1.89769700e-02 7.81665300e-03            nan
       50 -1    0    0    0    0 -4.1909826926e-03 +2.0499639249e-02 +1.3165829414e+01 1.3165846987e+01 4.9935713700e-03 0.0000e+00 0.0000e+00
       11 -1    0    0    0    0 -7.9516973695e-20 +3.8894679231e-19 +2.4979986508e-16 5.1100000000e-04 5.1099893000e-04 0.0000e+00 -1.0000e+00
       50  1    1    2    0    0 +6.9542108274e-03 +3.4582067181e-02 +1.2829201751e+01 1.2829251217e+01 4.9935713700e-03 0.0000e+00 0.0000e+00
       11  1    1    2    0    0 -1.1145193520e-02 -1.4082427932e-02 +3.3662766318e-01 3.3710677070e-01 5.1099893000e-04 0.0000e+00 -1.0000e+00
<vert_displacement>
250.86997837802781
</vert_displacement>
</event>
<event>
 4   1200 +8.5212000e+10 1.52821700e-02 7.81665300e-03            nan
       50 -1    0    0    0    0 -1.2845411587e-02 -4.2228035889e-04 +8.3840816624e+00 8.3840930004e+00 4.9935713700e-03 0.0000e+00 0.0000e+00
       11 -1    0    0    0    0 -9.0365194378e-19 -2.9706674991e-20 +5.8980528883e-16 5.1100000000e-04 5.1099893000e-04 0.0000e+00 1.0000e+00
       50  1    1    2    0    0 -2.5384627465e-02 +6.1631258223e-03 +8.1746881148e+00 8.1747313762e+00 4.9935713700e-03 0.0000e+00 0.0000e+00
       11  1    1    2    0    0 +1.2539215879e-02 -6.5854061812e-03 +2.0939354759e-01 2.0987262423e-01 5.1099893000e-04 0.0000e+00 1.0000e+00
<vert_displacement>
54.076481818347787
</vert_displacement>
</event>
<event>
 4   1200 +8.5212000e+10 1.84684300e-02 7.81665300e-03            nan
       50 -1    0    0    0    0 -8.5912827629e-02 +8.1034219420e-02 +4.0134896945e+01 4.0135071013e+01 4.9935713700e-03 0.0000e+00 0.0000e+00
       11 -1    0    0    0    0 -5.9413374435e-20 +5.6039552571e-20 +2.7755455452e-17 5.1100000000e-04 5.1099893000e-04 0.0000e+00 1.0000e+00
       50  1    1    2    0    0 -9.0932355008e-02 +9.7251234683e-02 +3.9823083309e+01 3.9823306188e+01 4.9935713700e-03 0.0000e+00 0.0000e+00
       11  1    1    2    0    0 +5.0195273784e-03 -1.6217015263e-02 +3.1181363510e-01 3.1227582582e-01 5.1099893000e-04 0.0000e+00 1.0000e+00
<vert_displacement>
47.955623758845526
</vert_displacement>
</event>
<event>
 4   1200 +8.5212000e+10 8.75075700e-03 7.81665300e-03            nan
       50 -1    0    0    0    0 -1.3223469936e-02 +9.7102156753e-03 +6.6386804122e+00 6.6387025614e+00 4.9935713700e-03 0.0000e+00 0.0000e+00
       11 -1    0    0    0    0 +3.3171402406e-19 -2.4358316930e-19 -1.6653294519e-16 5.1100000000e-04 5.1099893000e-04 0.0000e+00 1.0000e+00
       50  1    1    2    0    0 -6.0997442540e-03 +8.1102245372e-03 +6.5877724581e+00 6.5877821669e+00 4.9935713700e-03 0.0000e+00 0.0000e+00
       11  1    1    2    0    0 -7.1237256818e-03 +1.5999911381e-03 +5.0907954059e-02 5.1431394553e-02 5.1099893000e-04 0.0000e+00 1.0000e+00
<vert_displacement>
374.30555673339012
</vert_displacement>
</event>
<event>
 4   1200 +8.5212000e+10 9.66897900e-03 7.81665300e-03            nan
       50 -1    0    0    0    0 +2.7223364801e-03 -1.5922159002e-02 +2.3787394419e+01 2.3787400427e+01 4.9935713700e-03 0.0000e+00 0.0000e+00
       11 -1    0    0    0    0 +3.3670605998e-19 -1.9692963979e-18 +2.9420903369e-15 5.1100000000e-04 5.1099893000e-04 0.0000e+00 1.0000e+00
       50  1    1    2    0    0 -3.6255634796e-03 -2.1202095238e-02 +2.3720122040e+01 2.3720132319e+01 4.9935713700e-03 0.0000e+00 0.0000e+00
       11  1    1    2    0    0 +6.3478999597e-03 +5.2799362355e-03 +6.7272378417e-02 6.7779108716e-02 5.1099893000e-04 0.0000e+00 1.0000e+00
<vert_displacement>
261.24602619190375
</vert_displacement>
</event>
<event>
 4   1200 +8.5212000e+10 4.27813900e-02 7.81665300e-03            nan
       50 -1    0    0    0    0 +6.1473447577e-02 -4.6830303039e-02 +1.9515941638e+01 1.9516095281e+01 4.9935713700e-03 0.0000e+00 0.0000e+00
       11 -1    0    0    0    0 -8.9612534049e-18 +6.8266581605e-18 -2.8449241965e-15 5.1100000000e-04 5.1099893000e-04 0.0000e+00 1.0000e+00
       50  1    1    2    0    0 +5.3896335366e-02 -8.4582506274e-02 +1.7551374271e+01 1.7551661538e+01 4.9935713700e-03 0.0000e+00 0.0000e+00
       11  1    1    2    0    0 +7.5771122109e-03 +3.7752203235e-02 +1.9645673672e+00 1.9649447430e+00 5.1099893000e-04 0.0000e+00 1.0000e+00
<vert_displacement>
349.11003226035365
</vert_displacement>
</event>
<event>
 4   1200 +8.5212000e+10 7.15849400e-03 7.81665300e-03            nan
       50 -1    0    0    0    0 +3.5842481170e-02 -8.4228063088e-03 +1.8057913107e+01 1.8057951333e+01 4.9935713700e-03 0.0000e+00 0.0000e+00
       11 -1    0    0    0    0 +7.7127255604e-19 -1.8124524695e-19 +3.8857725092e-16 5.1100000000e-04 5.1099893000e-04 0.0000e+00 1.0000e+00
       50  1    1    2    0    0 +4.0897328465e-02 -8.8973753983e-03 +1.8032123261e+01 1.8032172526e+01 4.9935713700e-03 0.0000e+00 0.0000e+00
       11  1    1    2    0    0 -5.0548472955e-03 +4.7456908958e-04 +2.5789845851e-02 2.6289807263e-02 5.1099893000e-04 0.0000e+00 1.0000e+00
<vert_displacement>
372.78598548748624
</vert_displacement>
</event>
<event>
 4   1200 +8.5212000e+10 2.76356700e-02 7.81665300e-03            nan
       50 -1    0    0    0    0 +2.7696139122e-02 -1.5266103467e-03 +4.6749250256e+01 4.6749258752e+01 4.9935713700e-03 0.0000e+00 0.0000e+00
       11 -1    0    0    0    0 -9.8661109318e-20 +5.4381973475e-21 -1.6653342438e-16 5.1100000000e-04 5.1099893000e-04 0.0000e+00 1.0000e+00
       50  1    1    2    0    0 +4.4608066634e-02 +1.9422831196e-02 +4.6014797506e+01 4.6014823498e+01 4.9935713700e-03 0.0000e+00 0.0000e+00
       11  1    1    2    0    0 -1.6911927512e-02 -2.0949441543e-02 +7.3445275023e-01 7.3494625371e-01 5.1099893000e-04 0.0000e+00 1.0000e+00
<vert_displacement>
22.100320250821223
</vert_displacement>
</event>
<event>
 4   1200 +8.5212000e+10 1.39610800e-02 7.81665300e-03            nan
       50 -1    0    0    0    0 +4.0721280503e-03 -1.6579160212e-02 +7.9239959177e+00 7.9240158815e+00 4.9935713700e-03 0.0000e+00 0.0000e+00
       11 -1    0    0    0    0 +1.4263510087e-20 -5.8072097930e-20 +2.7755511199e-17 5.1100000000e-04 5.1099893000e-04 0.0000e+00 1.0000e+00
       50  1    1    2    0    0 +1.5593478305e-02 -2.2157603572e-02 +7.7539926301e+00 7.7540415758e+00 4.9935713700e-03 0.0000e+00 0.0000e+00
       11  1    1    2    0    0 -1.1521350255e-02 +5.5784433606e-03 +1.7000328757e-01 1.7048530566e-01 5.1099893000e-04 0.0000e+00 1.0000e+00
<vert_displacement>
359.23653767573865
</vert_displacement>
</event>
<event>
 4   1200 +8.5212000e+10 9.09003600e-03 7.81665300e-03            nan
       50 -1    0    0    0    0 +4.6379538093e-02 -3.7248348447e-02 +5.0086447696e+01 5.0086483268e+01 4.9935713700e-03 0.0000e+00 0.0000e+00
       11 -1    0    0    0    0 -3.0841633086e-19 +2.4769541550e-19 -3.3306667249e-16 5.1100000000e-04 5.1099893000e-04 0.0000e+00 1.0000e+00
       50  1    1    2    0    0 +5.1818799471e-02 -4.2453728974e-02 +5.0029923298e+01 5.0029968396e+01 4.9935713700e-03 0.0000e+00 0.0000e+00
       11  1    1    2    0    0 -5.4392613782e-03 +5.2053805266e-03 +5.6524397202e-02 5.7025872635e-02 5.1099893000e-04 0.0000e+00 1.0000e+00
<vert_displacement>
225.35140314221806
</vert_displacement>
</event>
<event>
 4   1200 +8.5212000e+10 1.04511300e-02 7.81665300e-03            nan
       50 -1    0    0    0    0 +1.2094594222e-01 +9.7923922616e-02 +3.8887812544e+01 3.8888124234e+01 4.9935713700e-03 0.0000e+00 0.0000e+00
       11 -1    0    0    0    0 +3.5392268946e-18 +2.8655362402e-18 +1.1379694887e-15 5.1100000000e-04 5.1099893000e-04 0.0000e+00 1.0000e+00
       50  1    1    2    0    0 +1.2479768806e-01 +8.9505550890e-02 +3.8805168265e+01 3.8805472484e+01 4.9935713700e-03 0.0000e+00 0.0000e+00
       11  1    1    2    0    0 -3.8517458362e-03 +8.4183717261e-03 +8.2644279504e-02 8.3162749974e-02 5.1099893000e-04 0.0000e+00 1.0000e+00
<vert_displacement>
125.66698378625115
</vert_displacement>
</event>
<event>
 4   1200 +8.5212000e+10 1.58776300e-02 7.81665300e-03            nan
       50 -1    0    0    0    0 +1.7939217061e-02 -9.1268084463e-03 +8.4869036060e+00 8.4869289420e+00 4.9935713700e-03 0.0000e+00 0.0000e+00
       11 -1    0    0    0    0 +8.9469101539e-19 -4.5518561308e-19 +4.2327133781e-16 5.1100000000e-04 5.1099893000e-04 0.0000e+00 1.0000e+00
       50  1    1    2    0    0 +6.9808828595e-03 +1.9552643031e-03 +8.2584841121e+00 8.2584888037e+00 4.9935713700e-03 0.0000e+00 0.0000e+00
       11  1    1    2    0    0 +1.0958334202e-02 -1.1082072749e-02 +2.2841949388e-01 2.2895113830e-01 5.1099893000e-04 0.0000e+00 1.0000e+00
<vert_displacement>
239.17731849072175
</vert_displacement>
</event>
<event>
 4   1200 +8.5212000e+10 2.08920500e-02 7.81665300e-03            nan
       50 -1    0    0    0    0 +1.0856405763e-02 -1.0317378900e-02 +6.5019994869e+00 6.5020186537e+00 4.9935713700e-03 0.0000e+00 0.0000e+00
       11 -1    0    0    0    0 -7.2990910390e-19 +6.9366869220e-19 -4.3714915623e-16 5.1100000000e-04 5.1099893000e-04 0.0000e+00 1.0000e+00
       50  1    1    2    0    0 -9.1912693766e-03 -3.4686348411e-03 +6.0705921246e+00 6.0706021275e+00 4.9935713700e-03 0.0000e+00 0.0000e+00
       11  1    1    2    0    0 +2.0047675140e-02 -6.8487440592e-03 +4.3140736226e-01 4.3192752622e-01 5.1099893000e-04 0.0000e+00 1.0000e+00
<vert_displacement>
432.52386158556703
</vert_displacement>
</event>
<event>
 4   1200 +8.5212000e+10 1.39774000e-02 7.81665300e-03            nan
       50 -1    0    0    0    0 -4.2677683081e-02 -4.8964404173e-03 +1.5050983395e+01 1.5051045526e+01 4.9935713700e-03 0.0000e+00 0.0000e+00
       11 -1    0    0    0    0 -4.1515176728e-18 -4.7630652506e-19 +1.4641006504e-15 5.1100000000e-04 5.1099893000e-04 0.0000e+00 1.0000e+00
       50  1    1    2    0    0 -3.6852238482e-02 -1.6751197845e-02 +1.4882333556e+01 1.4882389449e+01 4.9935713700e-03 0.0000e+00 0.0000e+00
       11  1    1    2    0    0 -5.8254445998e-03 +1.1854757427e-02 +1.6864983829e-01 1.6916707763e-01 5.1099893000e-04 0.0000e+00 1.0000e+00
<vert_displacement>
423.52804192771333
</vert_displacement>
</event>
<event>
 4   1200 +8.5212000e+10 1.57019000e-02 7.81665300e-03            nan
       50 -1    0    0    0    0 -2.0502932482e-02 +8.3772541934e-04 +6.5636236563e+00 6.5636576320e+00 4.9935713700e-03 0.0000e+00 0.0000e+00
       11 -1    0    0    0    0 -4.3350132612e-19 +1.7712348247e-20 +1.3877719988e-16 5.1100000000e-04 5.1099893000e-04 0.0000e+00 1.0000e+00
       50  1    1    2    0    0 -1.4484547900e-02 -1.3095766204e-02 +6.3390709591e+00 6.3391030013e+00 4.9935713700e-03 0.0000e+00 0.0000e+00
       11  1    1    2    0    0 -6.0183845813e-03 +1.3933491623e-02 +2.2455269727e-01 2.2506563068e-01 5.1099893000e-04 0.0000e+00 1.0000e+00
<vert_displacement>
311.10176485375820
</vert_displacement>
</event>
<event>
 4   1200 +8.5212000e+10 6.84800200e-03 7.81665300e-03            nan
       50 -1    0    0    0    0 +4.9114795985e-03 -9.5228118444e-03 +1.4122666476e+01 1.4122671423e+01 4.9935713700e-03 0.0000e+00 0.0000e+00
       11 -1    0    0    0    0 -2.7992633168e-19 +5.4274597573e-19 -8.0491146119e-16 5.1100000000e-04 5.1099893000e-04 0.0000e+00 1.0000e+00
       50  1    1    2    0    0 +3.8208153260e-03 -4.9491251304e-03 +1.4101149639e+01 1.4101151909e+01 4.9935713700e-03 0.0000e+00 0.0000e+00
       11  1    1    2    0    0 +1.0906642725e-03 -4.5736867140e-03 +2.1516837325e-02 2.2030514454e-02 5.1099893000e-04 0.0000e+00 1.0000e+00
<vert_displacement>
398.28371543651372
</vert_displacement>
</event>
<event>
 4   1200 +8.5212000e+10 4.95288000e-02 7.81665300e-03            nan
       50 -1    0    0    0    0 +7.7427014708e-02 +8.3508008713e-02 +4.0487752825e+01 4.0487913286e+01 4.9935713700e-03 0.0000e+00 0.0000e+00
       11 -1    0    0    0    0 -8.1740649323e-18 -8.8160429297e-18 -4.2743417372e-15 5.1099999999e-04 5.1099893000e-04 0.0000e+00 1.0000e+00
       50  1    1    2    0    0 +2.3810631996e-02 +7.1228488290e-02 +3.7953167219e+01 3.7953241855e+01 4.9935713700e-03 0.0000e+00 0.0000e+00
       11  1    1    2    0    0 +5.3616382712e-02 +1.2279520423e-02 +2.5345856060e+00 2.5351824310e+00 5.1099893000e-04 0.0000e+00 1.0000e+00
<vert_displacement>
443.28358280350426
</vert_displacement>
</event>
<event>
 4   1200 +8.5212000e+10 2.38716900e-02 7.81665300e-03            nan
       50 -1    0    0    0    0 -3.9494663145e-02 -6.1292693093e-02 +2.4826191073e+01 2.4826298652e+01 4.9935713700e-03 0.0000e+00 0.0000e+00
       11 -1    0    0    0    0 -9.0517082354e-19 -1.4047558092e-18 +5.6898684605e-16 5.1100000000e-04 5.1099893000e-04 0.0000e+00 1.0000e+00
       50  1    1    2    0    0 -2.2984065415e-02 -7.7273240889e-02 +2.4280988939e+01 2.4281123290e+01 4.9935713700e-03 0.0000e+00 0.0000e+00
       11  1    1    2    0    0 -1.6510597730e-02 +1.5980547796e-02 +5.4520213394e-01 5.4568636204e-01 5.1099893000e-04 0.0000e+00 1.0000e+00
<vert_displacement>
340.30739217281405
</vert_displacement>
</event>
<event>
 4   1200 +8.5212000e+10 6.02973200e-03 7.81665300e-03            nan
       50 -1    0    0    0    0 +1.9713121842e-03 -1.1225797459e-03 +1.1004217459e+00 1.1004354143e+00 4.9935713700e-03 0.0000e+00 0.0000e+00
       11 -1    0    0    0    0 +1.2430413232e-20 -7.0785998477e-21 +6.9388791593e-18 5.1100000000e-04 5.1099893000e-04 0.0000e+00 1.0000e+00
       50  1    1    2    0    0 +2.6985091026e-03 +2.1848918066e-03 +1.0891238644e+00 1.0891408465e+00 4.9935713700e-03 0.0000e+00 0.0000e+00
       11  1    1    2    0    0 -7.2719691845e-04 -3.3074715524e-03 +1.1297881567e-02 1.1805567807e-02 5.1099893000e-04 0.0000e+00 1.0000e+00
<vert_displacement>
364.24505623577875
</vert_displacement>
</event>
<event>
 4   1200 +8.5212000e+10 2.65253600e-02 7.81665300e-03            nan
       50 -1    0    0    0    0 -1.9544508614e-02 -2.8168575299e-02 +1.2198122652e+01 1.2198171856e+01 4.9935713700e-03 0.0000e+00 0.0000e+00
       11 -1    0    0    0    0 -6.5595236676e-19 -9.4539310253e-19 +4.0939312326e-16 5.1100000000e-04 5.1099893000e-04 0.0000e+00 1.0000e+00
       50  1    1    2    0    0 -2.2003103803e-02 -7.3804900954e-04 +1.1493287515e+01 1.1493309685e+01 4.9935713700e-03 0.0000e+00 0.0000e+00
       11  1    1    2    0    0 +2.4585951893e-03 -2.7430526290e-02 +7.0483513742e-01 7.0537317111e-01 5.1099893000e-04 0.0000e+00 1.0000e+00
<vert_displacement>
407.40847578015985
</vert_displacement>
</event>
<event>
 4   1200 +8.5212000e+10 1.83432100e-02 7.81665300e-03            nan
       50 -1    0    0    0    0 -5.8323325792e-03 -2.7857944719e-02 +1.3486992367e+01 1.3487023324e+01 4.9935713700e-03 0.0000e+00 0.0000e+00
       11 -1    0    0    0    0 -6.7514797194e-19 -3.2248220801e-18 +1.5612476519e-15 5.1100000000e-04 5.1099893000e-04 0.0000e+00 1.0000e+00
       50  1    1    2    0    0 +2.2409584697e-04 -1.0585883421e-02 +1.3174953123e+01 1.3174958324e+01 4.9935713700e-03 0.0000e+00 0.0000e+00
       11  1    1    2    0    0 -6.0564284261e-03 -1.7272061299e-02 +3.1203924412e-01 3.1257599942e-01 5.1099893000e-04 0.0000e+00 1.0000e+00
<vert_displacement>
20.888525939537352
</vert_displacement>
</event>
<event>
 4   1200 +8.5212000e+10 7.91333100e-03 7.81665300e-03            nan
       50 -1    0    0    0    0 +6.8740929105e-03 +1.7413467975e-02 +6.7559815311e+00 6.7560093151e+00 4.9935713700e-03 0.0000e+00 0.0000e+00
       11 -1    0    0    0    0 +9.1782287228e-20 +2.3250310116e-19 +9.0205274421e-17 5.1100000000e-04 5.1099893000e-04 0.0000e+00 1.0000e+00
       50  1    1    2    0    0 +6.9994038731e-04 +1.7146676773e-02 +6.7189074828e+00 6.7189312541e+00 4.9935713700e-03 0.0000e+00 0.0000e+00
       11  1    1    2    0    0 +6.1741525232e-03 +2.6679120239e-04 +3.7074048248e-02 3.7589061046e-02 5.1099893000e-04 0.0000e+00 1.0000e+00
<vert_displacement>
161.21136451795041
</vert_displacement>
</event>
<event>
 4   1200 +8.5212000e+10 2.05450900e-02 7.81665300e-03            nan
       50 -1    0    0    0    0 -2.1925581844e-02 +1.7539601235e-02 +6.9439429271e+00 6.9440014890e+00 4.9935713700e-03 0.0000e+00 0.0000e+00
       11 -1    0    0    0    0 +5.4773650962e-19 -4.3816761757e-19 -1.7347092948e-16 5.1100000000e-04 5.1099893000e-04 0.0000e+00 1.0000e+00
       50  1    1    2    0    0 -4.0413072175e-02 +1.4168478847e-02 +6.5305569642e+00 6.5306992858e+00 4.9935713700e-03 0.0000e+00 0.0000e+00
       11  1    1    2    0    0 +1.8487490331e-02 +3.3711223877e-03 +4.1338596286e-01 4.1381320323e-01 5.1099893000e-04 0.0000e+00 1.0000e+00
<vert_displacement>
15.072312485911857
</vert_displacement>
</event>
<event>
 4   1200 +8.5212000e+10 1.74766600e-02 7.81665300e-03            nan
       50 -1    0    0    0    0 +2.4179418673e-02 +7.5466398121e-03 +1.6401914359e+01 1.6401934678e+01 4.9935713700e-03 0.0000e+00 0.0000e+00
       11 -1    0    0    0    0 -3.5802148444e-18 -1.1174210698e-18 -2.4286099704e-15 5.1100000000e-04 5.1099893000e-04 0.0000e+00 1.0000e+00
       50  1    1    2    0    0 +3.1756038745e-02 -7.3020768634e-03 +1.6122680872e+01 1.6122714573e+01 4.9935713700e-03 0.0000e+00 0.0000e+00
       11  1    1    2    0    0 -7.5766200725e-03 +1.4848716676e-02 +2.7923348693e-01 2.7973110464e-01 5.1099893000e-04 0.0000e+00 1.0000e+00
<vert_displacement>
441.86501741298463
</vert_displacement>
</event>
<event>
 4   1200 +8.5212000e+10 5.68192400e-03 7.81665300e-03            nan
       50 -1    0    0    0    0 -1.0162961120e-02 -7.9104379592e-03 +7.6802402102e+00 7.6802526315e+00 4.9935713700e-03 0.0000e+00 0.0000e+00
       11 -1    0    0    0    0 +3.0300447123e-19 +2.3584642732e-19 -2.2898317689e-16 5.1100000000e-04 5.1099893000e-04 0.0000e+00 1.0000e+00
       50  1    1    2    0    0 -7.8249550949e-03 -6.5149851102e-03 +7.6730471712e+00 7.6730555519e+00 4.9935713700e-03 0.0000e+00 0.0000e+00
       11  1    1    2    0    0 -2.3380060248e-03 -1.3954528490e-03 +7.1930390208e-03 7.7080795978e-03 5.1099893000e-04 0.0000e+00 1.0000e+00
<vert_displacement>
414.09261628612677
</vert_displacement>
</event>
<event>
 4   1200 +8.5212000e+10 1.17529400e-02 7.81665300e-03            nan
       50 -1    0    0    0    0 +1.7245508570e-03 +1.2425959003e-02 +4.8834289419e+00 4.8834476085e+00 4.9935713700e-03 0.0000e+00 0.0000e+00
       11 -1    0    0    0    0 -1.2007041942e-19 -8.6514706316e-19 -3.4000467940e-16 5.1100000000e-04 5.1099893000e-04 0.0000e+00 1.0000e+00
       50  1    1    2    0    0 +3.4244421718e-03 +2.2633446768e-02 +4.7699840389e+00 4.7700415791e+00 4.9935713700e-03 0.0000e+00 0.0000e+00
       11  1    1    2    0    0 -1.6998913149e-03 -1.0207487765e-02 +1.1344490301e-01 1.1391702935e-01 5.1099893000e-04 0.0000e+00 1.0000e+00
<vert_displacement>
277.29313674588519
</vert_displacement>
</event>
<event>
 4   1200 +8.5212000e+10 1.13172000e-02 7.81665300e-03            nan
       50 -1    0    0    0    0 -2.1946425674e-02 -3.4467211772e-03 +1.0897381359e+01 1.0897405147e+01 4.9935713700e-03 0.0000e+00 0.0000e+00
       11 -1    0    0    0    0 -1.4253816566e-18 -2.2385846399e-19 +7.0776570750e-16 5.1100000000e-04 5.1099893000e-04 0.0000e+00 1.0000e+00
       50  1    1    2    0    0 -2.9893199059e-02 +2.6426280456e-03 +1.0795484645e+01 1.0795527511e+01 4.9935713700e-03 0.0000e+00 0.0000e+00
       11  1    1    2    0    0 +7.9467733842e-03 -6.0893492228e-03 +1.0189671413e-01 1.0238863634e-01 5.1099893000e-04 0.0000e+00 1.0000e+00
<vert_displacement>
385.45372711034514
</vert_displacement>
</event>
<event>
 4   1200 +8.5212000e+10 6.32314000e-02 7.81665300e-03            nan
       50 -1    0    0    0    0 +2.3529324682e-02 -7.6244293338e-03 +1.5803180997e+01 1.5803201142e+01 4.9935713700e-03 0.0000e+00 0.0000e+00
       11 -1    0    0    0    0 -1.3430680441e-18 +4.3520702488e-19 -9.0205510268e-16 5.1100000000e-04 5.1099893000e-04 0.0000e+00 1.0000e+00
       50  1    1    2    0    0 -4.7297903602e-02 +1.3446556156e-02 +8.8613151701e+00 8.8614530062e+00 4.9935713700e-03 0.0000e+00 0.0000e+00
       11  1    1    2    0    0 +7.0827228284e-02 -2.1070985490e-02 +6.9418658274e+00 6.9422591358e+00 5.1099893000e-04 0.0000e+00 1.0000e+00
<vert_displacement>
13.490388860308117
</vert_displacement>
</event>
<event>
 4   1200 +8.5212000e+10 1.74487400e-02 7.81665300e-03            nan
       50 -1    0    0    0    0 -1.3524206638e-02 -2.8113716504e-02 +1.6611322711e+01 1.6611352757e+01 4.9935713700e-03 0.0000e+00 0.0000e+00
       11 -1    0    0    0    0 -1.5818128343e-19 -3.2882252377e-19 +1.9428868666e-16 5.1100000000e-04 5.1099893000e-04 0.0000e+00 1.0000e+00
       50  1    1    2    0    0 -5.8710017197e-04 -1.6781891452e-02 +1.6333172717e+01 1.6333182113e+01 4.9935713700e-03 0.0000e+00 0.0000e+00
       11  1    1    2    0    0 -1.2937106466e-02 -1.1331825052e-02 +2.7814999316e-01 2.7868164417e-01 5.1099893000e-04 0.0000e+00 1.0000e+00
<vert_displacement>
7.8701487773392671
</vert_displacement>
</event>
<event>
 4   1200 +8.5212000e+10 2.89630100e-02 7.81665300e-03            nan
       50 -1    0    0    0    0 -1.3879081271e-02 -2.3126037966e-02 +1.0189460708e+01 1.0189497627e+01 4.9935713700e-03 0.0000e+00 0.0000e+00
       11 -1    0    0    0    0 -2.4573758936e-19 -4.0946059111e-19 +1.8041060949e-16 5.1100000000e-04 5.1099893000e-04 0.0000e+00 1.0000e+00
       50  1    1    2    0    0 -3.3789996402e-02 -1.9443735776e-03 +9.3183954561e+00 9.3184582607e+00 4.9935713700e-03 0.0000e+00 0.0000e+00
       11  1    1    2    0    0 +1.9910915132e-02 -2.1181664388e-02 +8.7106525143e-01 8.7155036619e-01 5.1099893000e-04 0.0000e+00 1.0000e+00
<vert_displacement>
330.02825957662213
</vert_displacement>
</event>
<event>
 4   1200 +8.5212000e+10 1.51760500e-02 7.81665300e-03            nan
       50 -1    0    0    0    0 +5.2644670543e-02 -2.9606384516e-02 +1.5611002126e+01 1.5611119765e+01 4.9935713700e-03 0.0000e+00 0.0000e+00
       11 -1    0    0    0    0 -3.4163588470e-18 +1.9212967358e-18 -1.0130709277e-15 5.1100000000e-04 5.1099893000e-04 0.0000e+00 1.0000e+00
       50  1    1    2    0    0 +6.6102315271e-02 -3.1525087192e-02 +1.5407329308e+01 1.5407504168e+01 4.9935713700e-03 0.0000e+00 0.0000e+00
       11  1    1    2    0    0 -1.3457644728e-02 +1.9187026760e-03 +2.0367281803e-01 2.0412659686e-01 5.1099893000e-04 0.0000e+00 1.0000e+00
<vert_displacement>
169.35873126981318
</vert_displacement>
</event>
<event>
 4   1200 +8.5212000e+10 6.91490600e-03 7.81665300e-03            nan
       50 -1    0    0    0    0 -1.1457605901e-02 -4.0887232864e-03 +7.7860473173e+00 7.7860584224e+00 4.9935713700e-03 0.0000e+00 0.0000e+00
       11 -1    0    0    0    0 +2.6548494991e-19 +9.4740079761e-20 -1.8041102129e-16 5.1100000000e-04 5.1099893000e-04 0.0000e+00 1.0000e+00
       50  1    1    2    0    0 -1.4536365951e-02 -7.7096731712e-03 +7.7635867917e+00 7.7636058345e+00 4.9935713700e-03 0.0000e+00 0.0000e+00
       11  1    1    2    0    0 +3.0787600505e-03 +3.6209498847e-03 +2.2460525564e-02 2.2963587918e-02 5.1099893000e-04 0.0000e+00 1.0000e+00
<vert_displacement>
170.82786550019344
</vert_displacement>
</event>
<event>
 4   1200 +8.5212000e+10 1.96024000e-02 7.81665300e-03            nan
       50 -1    0    0    0    0 +7.4659225433e-02 +9.2956473963e-02 +4.0496382904e+01 4.0496558720e+01 4.9935713700e-03 0.0000e+00 0.0000e+00
       11 -1    0    0    0    0 -6.6265178236e-18 -8.2505240036e-18 -3.5943314647e-15 5.1100000000e-04 5.1099893000e-04 0.0000e+00 1.0000e+00
       50  1    1    2    0    0 +5.5192400580e-02 +8.9820430119e-02 +4.0141728121e+01 4.0141866865e+01 4.9935713700e-03 0.0000e+00 0.0000e+00
       11  1    1    2    0    0 +1.9466824853e-02 +3.1360438440e-03 +3.5465478257e-01 3.5520285467e-01 5.1099893000e-04 0.0000e+00 1.0000e+00
<vert_displacement>
45.103957774783254
</vert_displacement>
</event>
<event>
 4   1200 +8.5212000e+10 1.46554500e-02 7.81665300e-03            nan
       50 -1    0    0    0    0 +9.1451290890e-03 -6.2348134845e-03 +1.3246473047e+01 1.3246478612e+01 4.9935713700e-03 0.0000e+00 0.0000e+00
       11 -1    0    0    0    0 +9.6767839545e-19 -6.5972762658e-19 +1.4016560793e-15 5.1100000000e-04 5.1099893000e-04 0.0000e+00 1.0000e+00
       50  1    1    2    0    0 +1.3140889383e-02 -1.9292351433e-02 +1.3058011251e+01 1.3058033070e+01 4.9935713700e-03 0.0000e+00 0.0000e+00
       11  1    1    2    0    0 -3.9957602940e-03 +1.3057537949e-02 +1.8846179574e-01 1.8895654254e-01 5.1099893000e-04 0.0000e+00 1.0000e+00
<vert_displacement>
426.38027651011942
</vert_displacement>
</event>
<event>
 4   1200 +8.5212000e+10 9.63064300e-03 7.81665300e-03            nan
       50 -1    0    0    0    0 -2.1152315991e-02 +1.8893064362e-02 +9.7975682053e+00 9.7976105272e+00 4.9935713700e-03 0.0000e+00 0.0000e+00
       11 -1    0    0    0    0 -1.1984448260e-18 +1.0704404776e-18 +5.5510918655e-16 5.1100000000e-04 5.1099893000e-04 0.0000e+00 1.0000e+00
       50  1    1    2    0    0 -2.3675352074e-02 +2.6555161553e-02 +9.7307337376e+00 9.7308000548e+00 4.9935713700e-03 0.0000e+00 0.0000e+00
       11  1    1    2    0    0 +2.5230360829e-03 -7.6620971912e-03 +6.6834467730e-02 6.7321472362e-02 5.1099893000e-04 0.0000e+00 1.0000e+00
<vert_displacement>
496.98215328703861
</vert_displacement>
</event>
<event>
 4   1200 +8.5212000e+10 2.71925900e-02 7.81665300e-03            nan
       50 -1    0    0    0    0 +9.9179404586e-02 +6.6025996834e-02 +3.2395377223e+01 3.2395596713e+01 4.9935713700e-03 0.0000e+00 0.0000e+00
       11 -1    0    0    0    0 -5.0559494389e-18 -3.3658611185e-18 -1.6514455797e-15 5.1100000000e-04 5.1099893000e-04 0.0000e+00 1.0000e+00
       50  1    1    2    0    0 +1.1848179736e-01 +8.0463024994e-02 +3.1680363253e+01 3.1680687382e+01 4.9935713700e-03 0.0000e+00 0.0000e+00
       11  1    1    2    0    0 -1.9302392774e-02 -1.4437028161e-02 +7.1501397026e-01 7.1542033026e-01 5.1099893000e-04 0.0000e+00 1.0000e+00
<vert_displacement>
180.73882213950230
</vert_displacement>
</event>
<event>
 4   1200 +8.5212000e+10 1.42054400e-02 7.81665300e-03            nan
       50 -1    0    0    0    0 -2.0229287687e-02 +1.4254512054e-02 +7.7612140190e+00 7.7612550789e+00 4.9935713700e-03 0.0000e+00 0.0000e+00
       11 -1    0    0    0    0 -1.2660096344e-19 +8.9209021460e-20 +4.8572010416e-17 5.1100000000e-04 5.1099893000e-04 0.0000e+00 1.0000e+00
       50  1    1    2    0    0 -6.7456258368e-03 +1.6628276487e-02 +7.5841264377e+00 7.5841493103e+00 4.9935713700e-03 0.0000e+00 0.0000e+00
       11  1    1    2    0    0 -1.3483661850e-02 -2.3737644325e-03 +1.7708758132e-01 1.7761676855e-01 5.1099893000e-04 0.0000e+00 1.0000e+00
<vert_displacement>
134.15689418231372
</vert_displacement>
</event>
<event>
 4   1200 +8.5212000e+10 2.95268600e-02 7.81665300e-03            nan
       50 -1    0    0    0    0 -6.7732106473e-02 +8.9247073890e-02 +3.6264193735e+01 3.6264367151e+01 4.9935713700e-03 0.0000e+00 0.0000e+00
       11 -1    0    0    0    0 -3.8361576075e-18 +5.0547053573e-18 +2.0539027932e-15 5.1100000000e-04 5.1099893000e-04 0.0000e+00 1.0000e+00
       50  1    1    2    0    0 -8.1820649922e-02 +1.1167889730e-01 +3.5415559178e+01 3.5415830128e+01 4.9935713700e-03 0.0000e+00 0.0000e+00
       11  1    1    2    0    0 +1.4088543449e-02 -2.2431823411e-02 +8.4863455634e-01 8.4904802284e-01 5.1099893000e-04 0.0000e+00 1.0000e+00
<vert_displacement>
50.621192348826256
</vert_displacement>
</event>
<event>
 4   1200 +8.5212000e+10 5.94604000e-03 7.81665300e-03            nan
       50 -1    0    0    0    0 +1.5030953459e-02 -7.4138127873e-02 +3.0719385727e+01 3.0719479273e+01 4.9935713700e-03 0.0000e+00 0.0000e+00
       11 -1    0    0    0    0 -1.3444916805e-18 +6.6315218395e-18 -2.7477936548e-15 5.1100000000e-04 5.1099893000e-04 0.0000e+00 1.0000e+00
       50  1    1    2    0    0 +1.2743694533e-02 -7.1830785986e-02 +3.0709193483e+01 3.0709280542e+01 4.9935713700e-03 0.0000e+00 0.0000e+00
       11  1    1    2    0    0 +2.2872589262e-03 -2.3073418866e-03 +1.0192243941e-02 1.0709730923e-02 5.1099893000e-04 0.0000e+00 1.0000e+00
<vert_displacement>
461.87818018144253
</vert_displacement>
</event>
<event>
 4   1200 +8.5212000e+10 3.61097900e-02 7.81665300e-03            nan
       50 -1    0    0    0    0 +6.1699384979e-02 -2.5884231729e-02 +3.8214430774e+01 3.8214489675e+01 4.9935713700e-03 0.0000e+00 0.0000e+00
       11 -1    0    0    0    0 -3.6074381455e-18 +1.5133986333e-18 -2.2343204123e-15 5.1100000000e-04 5.1099893000e-04 0.0000e+00 1.0000e+00
       50  1    1    2    0    0 +2.3956344720e-02 -2.7825730121e-02 +3.6919082263e+01 3.6919100859e+01 4.9935713700e-03 0.0000e+00 0.0000e+00
       11  1    1    2    0    0 +3.7743040258e-02 +1.9414983923e-03 +1.2953485115e+00 1.2958998162e+00 5.1099893000e-04 0.0000e+00 1.0000e+00
<vert_displacement>
325.14818677269494
</vert_displacement>
</event>
<event>
 4   1200 +8.5212000e+10 5.52953600e-03 7.81665300e-03            nan
       50 -1    0    0    0    0 +3.6734771504e-02 +4.2304928662e-03 +1.4136974076e+01 1.4137023318e+01 4.9935713700e-03 0.0000e+00 0.0000e+00
       11 -1    0    0    0    0 +4.8682559899e-19 +5.6064380946e-20 +1.8734949451e-16 5.1100000000e-04 5.1099893000e-04 0.0000e+00 1.0000e+00
       50  1    1    2    0    0 +3.7177649161e-02 +1.8983976509e-03 +1.4131452636e+01 1.4131502550e+01 4.9935713700e-03 0.0000e+00 0.0000e+00
       11  1    1    2    0    0 -4.4287765682e-04 +2.3320952152e-03 +5.5214396953e-03 6.0317679769e-03 5.1099893000e-04 0.0000e+00 1.0000e+00
<vert_displacement>
87.159633771568437
</vert_displacement>
</event>
<event>
 4   1200 +8.5212000e+10 2.38339900e-02 7.81665300e-03            nan
       50 -1    0    0    0    0 +1.2967273206e-03 +5.6921634684e-03 +4.7274050787e+00 4.7274113208e+00 4.9935713700e-03 0.0000e+00 0.0000e+00
       11 -1    0    0    0    0 -8.3746841393e-20 -3.6761831388e-19 -3.0531109897e-16 5.1100000000e-04 5.1099893000e-04 0.0000e+00 1.0000e+00
       50  1    1    2    0    0 +2.1860185490e-02 +1.5603213194e-02 +4.1165732256e+00 4.1166638660e+00 4.9935713700e-03 0.0000e+00 0.0000e+00
       11  1    1    2    0    0 -2.0563458169e-02 -9.9110497256e-03 +6.1083185308e-01 6.1125845481e-01 5.1099893000e-04 0.0000e+00 1.0000e+00
<vert_displacement>
96.073149386757777
</vert_displacement>
</event>
<event>
 4   1200 +8.5212000e+10 3.67327100e-02 7.81665300e-03            nan
       50 -1    0    0    0    0 -3.8605279664e-02 +2.6770448376e-02 +1.6689760244e+01 1.6689827110e+01 4.9935713700e-03 0.0000e+00 0.0000e+00
       11 -1    0    0    0    0 -1.5087350693e-18 +1.0462173733e-18 +6.5225344297e-16 5.1100000000e-04 5.1099893000e-04 0.0000e+00 1.0000e+00
       50  1    1    2    0    0 +9.4113975769e-04 +2.7465241025e-02 +1.5273606945e+01 1.5273632484e+01 4.9935713700e-03 0.0000e+00 0.0000e+00
       11  1    1    2    0    0 -3.9546419422e-02 -6.9479264881e-04 +1.4161532990e+00 1.4167056255e+00 5.1099893000e-04 0.0000e+00 1.0000e+00
<vert_displacement>
34.267058376474054
</vert_displacement>
</event>
<event>
 4   1200 +8.5212000e+10 1.99926800e-02 7.81665300e-03            nan
       50 -1    0    0    0    0 +3.7839212627e-02 -1.5023967219e-02 +1.9839444078e+01 1.9839486480e+01 4.9935713700e-03 0.0000e+00 0.0000e+00
       11 -1    0    0    0    0 -6.0877913141e-18 +2.4171427148e-18 -3.1918844750e-15 5.1100000000e-04 5.1099893000e-04 0.0000e+00 1.0000e+00
       50  1    1    2    0    0 +5.6427839800e-02 -1.3250128542e-02 +1.9465645752e+01 1.9465732689e+01 4.9935713700e-03 0.0000e+00 0.0000e+00
       11  1    1    2    0    0 -1.8588627172e-02 -1.7738386772e-03 +3.7379832631e-01 3.7426479054e-01 5.1099893000e-04 0.0000e+00 1.0000e+00
<vert_displacement>
195.27515162322211
</vert_displacement>
</event>
<event>
 4   1200 +8.5212000e+10 1.12840900e-02 7.81665300e-03            nan
       50 -1    0    0    0    0 +6.6455704020e-03 -2.1455321699e-02 +1.7752423357e+01 1.7752438269e+01 4.9935713700e-03 0.0000e+00 0.0000e+00
       11 -1    0    0    0    0 +4.1041346738e-19 -1.3250259105e-18 +1.0963443593e-15 5.1100000000e-04 5.1099893000e-04 0.0000e+00 1.0000e+00
       50  1    1    2    0    0 -3.1228682344e-03 -1.8557217156e-02 +1.7651664140e+01 1.7651674877e+01 4.9935713700e-03 0.0000e+00 0.0000e+00
       11  1    1    2    0    0 +9.7684386364e-03 -2.8981045433e-03 +1.0075921699e-01 1.0127439129e-01 5.1099893000e-04 0.0000e+00 1.0000e+00
<vert_displacement>
213.60299696847278
</vert_displacement>
</event>
<event>
 4   1200 +8.5212000e+10 1.60627600e-02 7.81665300e-03            nan
       50 -1    0    0    0    0 -1.5760355952e-02 +2.8545011171e-02 +1.1646689753e+01 1.1646736468e+01 4.9935713700e-03 0.0000e+00 0.0000e+00
       11 -1    0    0    0    0 -7.5117659402e-20 +1.3605241108e-19 +5.5510933681e-17 5.1100000000e-04 5.1099893000e-04 0.0000e+00 1.0000e+00
       50  1    1    2    0    0 -8.2873772343e-03 +4.1459356611e-02 +1.1413937961e+01 1.1414017359e+01 4.9935713700e-03 0.0000e+00 0.0000e+00
       11  1    1    2    0    0 -7.4729787180e-03 -1.2914345440e-02 +2.3275179257e-01 2.3323010911e-01 5.1099893000e-04 0.0000e+00 1.0000e+00
<vert_displacement>
49.083738165315268
</vert_displacement>
</event>
<event>
 4   1200 +8.5212000e+10 1.21740300e-02 7.81665300e-03            nan
       50 -1    0    0    0    0 -1.0958785698e-02 -7.0791119864e-03 +4.0497341777e+00 4.0497582712e+00 4.9935713700e-03 0.0000e+00 0.0000e+00
       11 -1    0    0    0    0 +9.3884503705e-19 +6.0647131336e-19 -3.4694289485e-16 5.1100000000e-04 5.1099893000e-04 0.0000e+00 1.0000e+00
       50  1    1    2    0    0 +4.7356950907e-04 -7.2618480156e-03 +3.9252819712e+00 3.9252918934e+00 4.9935713700e-03 0.0000e+00 0.0000e+00
       11  1    1    2    0    0 -1.1432355207e-02 +1.8273602919e-04 +1.2445220650e-01 1.2497737779e-01 5.1099893000e-04 0.0000e+00 1.0000e+00
<vert_displacement>
156.50945160474251
</vert_displacement>
</event>
<event>
 4   1200 +8.5212000e+10 1.12244700e-02 7.81665300e-03            nan
       50 -1    0    0    0    0 +5.8403514590e-03 -8.3874222667e-03 +4.2533541279e+00 4.2533693387e+00 4.9935713700e-03 0.0000e+00 0.0000e+00
       11 -1    0    0    0    0 +9.5278833878e-19 -1.3683145927e-18 +6.9388738712e-16 5.1100000000e-04 5.1099893000e-04 0.0000e+00 1.0000e+00
       50  1    1    2    0    0 -2.6829213946e-03 -1.3733708235e-02 +4.1520382539e+00 4.1520648370e+00 4.9935713700e-03 0.0000e+00 0.0000e+00
       11  1    1    2    0    0 +8.5232728536e-03 +5.3462859680e-03 +1.0131587398e-01 1.0181550174e-01 5.1099893000e-04 0.0000e+00 1.0000e+00
<vert_displacement>
20.633473956854697
</vert_displacement>
</event>
<event>
 4   1200 +8.5212000e+10 1.99733600e-02 7.81665300e-03            nan
       50 -1    0    0    0    0 -9.0047505955e-02 -1.2816459651e-02 +2.8125015206e+01 2.8125162721e+01 4.9935713700e-03 0.0000e+00 0.0000e+00
       11 -1    0    0    0    0 -6.2204947836e-19 -8.8536289323e-20 +1.9428801334e-16 5.1100000000e-04 5.1099893000e-04 0.0000e+00 1.0000e+00
       50  1    1    2    0    0 -1.0445323240e-01 -2.4086552336e-02 +2.7754112758e+01 2.7754320214e+01 4.9935713700e-03 0.0000e+00 0.0000e+00
       11  1    1    2    0    0 +1.4405726445e-02 +1.1270092686e-02 +3.7090244860e-01 3.7135350738e-01 5.1099893000e-04 0.0000e+00 1.0000e+00
<vert_displacement>
473.03220627918785
</vert_displacement>
</event>
<event>
 4   1200 +8.5212000e+10 1.25900900e-02 7.81665300e-03            nan
       50 -1    0    0    0    0 +5.9473160232e-02 +3.1273564020e-02 +2.1357664811e+01 2.1357771096e+01 4.9935713700e-03 0.0000e+00 0.0000e+00
       11 -1    0    0    0    0 +6.8400395000e-18 +3.5967890788e-18 +2.4563562852e-15 5.1100000000e-04 5.1099893000e-04 0.0000e+00 1.0000e+00
       50  1    1    2    0    0 +6.6967888269e-02 +3.9553241040e-02 +2.1226118143e+01 2.1226261223e+01 4.9935713700e-03 0.0000e+00 0.0000e+00
       11  1    1    2    0    0 -7.4947280371e-03 -8.2796770199e-03 +1.3154666814e-01 1.3202087342e-01 5.1099893000e-04 0.0000e+00 1.0000e+00
<vert_displacement>
443.88564567201570
</vert_displacement>
</event>
<event>
 4   1200 +8.5212000e+10 1.01911900e-02 7.81665300e-03            nan
       50 -1    0    0    0    0 +2.5187391977e-02 +2.9136068857e-02 +1.8340207114e+01 1.8340248233e+01 4.9935713700e-03 0.0000e+00 0.0000e+00
       11 -1    0    0    0    0 +4.1929620450e-19 +4.8503009349e-19 +3.0531065858e-16 5.1100000000e-04 5.1099893000e-04 0.0000e+00 1.0000e+00
       50  1    1    2    0    0 +2.7466428347e-02 +3.7570516543e-02 +1.8262634219e+01 1.8262694202e+01 4.9935713700e-03 0.0000e+00 0.0000e+00
       11  1    1    2    0    0 -2.2790363695e-03 -8.4344476859e-03 +7.7572894504e-02 7.8065030559e-02 5.1099893000e-04 0.0000e+00 1.0000e+00
<vert_displacement>
202.31860782307547
</vert_displacement>
</event>
<event>
 4   1200 +8.5212000e+10 1.55562700e-02 7.81665300e-03            nan
       50 -1    0    0    0    0 +6.2778776459e-03 -8.8791055786e-03 +6.6095799703e+00 6.6095908020e+00 4.9935713700e-03 0.0000e+00 0.0000e+00
       11 -1    0    0    0    0 +1.8453836835e-19 -2.6100152763e-19 +1.9428876636e-16 5.1100000000e-04 5.1099893000e-04 0.0000e+00 1.0000e+00
       50  1    1    2    0    0 -8.6265183045e-03 -7.5359031342e-03 +6.3898580349e+00 6.3898702528e+00 4.9935713700e-03 0.0000e+00 0.0000e+00
       11  1    1    2    0    0 +1.4904395950e-02 -1.3432024444e-03 +2.1972193542e-01 2.2023154914e-01 5.1099893000e-04 0.0000e+00 1.0000e+00
<vert_displacement>
349.52756383560057
</vert_displacement>
</event>
<event>
 4   1200 +8.5212000e+10 7.11155600e-02 7.81665300e-03            nan
       50 -1    0    0    0    0 -4.6541300190e-02 -3.6472220878e-02 +2.7675948317e+01 2.7676011933e+01 4.9935713700e-03 0.0000e+00 0.0000e+00
       11 -1    0    0    0    0 -2.8238434913e-18 -2.2129128993e-18 +1.6792084923e-15 5.1100000000e-04 5.1099893000e-04 0.0000e+00 1.0000e+00
       50  1    1    2    0    0 +3.4094520069e-02 -4.0378460351e-02 +2.1265780286e+01 2.1265846537e+01 4.9935713700e-03 0.0000e+00 0.0000e+00
       11  1    1    2    0    0 -8.0635820260e-02 +3.9062394728e-03 +6.4101680316e+00 6.4106763956e+00 5.1099893000e-04 0.0000e+00 1.0000e+00
<vert_displacement>
39.390575635144614
</vert_displacement>
</event>
<event>
 4   1200 +8.5212000e+10 6.90691900e-03 7.81665300e-03            nan
       50 -1    0    0    0    0 -1.4530703813e-02 -7.3612165174e-03 +6.9794751951e+00 6.9794959893e+00 4.9935713700e-03 0.0000e+00 0.0000e+00
       11 -1    0    0    0    0 +9.6789389245e-19 +4.9033251243e-19 -4.6490462545e-16 5.1100000000e-04 5.1099893000e-04 0.0000e+00 1.0000e+00
       50  1    1    2    0    0 -1.0351012625e-02 -4.9529619105e-03 +6.9571332754e+00 6.9571445308e+00 4.9935713700e-03 0.0000e+00 0.0000e+00
       11  1    1    2    0    0 -4.1796911886e-03 -2.4082546069e-03 +2.2341919792e-02 2.2862458499e-02 5.1099893000e-04 0.0000e+00 1.0000e+00
<vert_displacement>
116.00150467044533
</vert_displacement>
</event>
<event>
 4   1200 +8.5212000e+10 6.33317200e-03 7.81665300e-03            nan
       50 -1    0    0    0    0 +1.3491075362e-01 +7.7251497781e-02 +3.8864703955e+01 3.8865015208e+01 4.9935713700e-03 0.0000e+00 0.0000e+00
       11 -1    0    0    0    0 +1.8787655136e-18 +1.0758034183e-18 +5.4122939446e-16 5.1100000000e-04 5.1099893000e-04 0.0000e+00 1.0000e+00
       50  1    1    2    0    0 +1.3874223470e-01 +7.7530404444e-02 +3.8849837422e+01 3.8850162844e+01 4.9935713700e-03 0.0000e+00 0.0000e+00
       11  1    1    2    0    0 -3.8314810873e-03 -2.7890666229e-04 +1.4866533172e-02 1.5363364368e-02 5.1099893000e-04 0.0000e+00 1.0000e+00
<vert_displacement>
112.11640366733135
</vert_displacement>
</event>
<event>
 4   1200 +8.5212000e+10 4.10006400e-02 7.81665300e-03            nan
       50 -1    0    0    0    0 -1.5917306276e-02 +8.2450733532e-03 +8.7226178965e+00 8.7226377459e+00 4.9935713700e-03 0.0000e+00 0.0000e+00
       11 -1    0    0    0    0 -1.7600574954e-18 +9.1169968735e-19 +9.6450421585e-16 5.1100000000e-04 5.1099893000e-04 0.0000e+00 1.0000e+00
       50  1    1    2    0    0 -5.2653640556e-02 +4.6860185536e-03 +6.5686483313e+00 6.5688629305e+00 4.9935713700e-03 0.0000e+00 0.0000e+00
       11  1    1    2    0    0 +3.6736334280e-02 +3.5590547996e-03 +2.1539695653e+00 2.1542858154e+00 5.1099893000e-04 0.0000e+00 1.0000e+00
<vert_displacement>
30.664560879640071
</vert_displacement>
</event>
<event>
 4   1200 +8.5212000e+10 1.15784900e-02 7.81665300e-03            nan
       50 -1    0    0    0    0 +2.1014018359e-02 +6.0369360275e-03 +1.1678857312e+01 1.1678878846e+01 4.9935713700e-03 0.0000e+00 0.0000e+00
       11 -1    0    0    0    0 +6.1177865597e-19 +1.7575261171e-19 +3.4000520547e-16 5.1100000000e-04 5.1099893000e-04 0.0000e+00 1.0000e+00
       50  1    1    2    0    0 +1.0380993267e-02 +5.5932492644e-03 +1.1571098552e+01 1.1571105638e+01 4.9935713700e-03 0.0000e+00 0.0000e+00
       11  1    1    2    0    0 +1.0633025092e-02 +4.4368676308e-04 +1.0775876074e-01 1.0828420806e-01 5.1099893000e-04 0.0000e+00 1.0000e+00
<vert_displacement>
301.25426392896742
</vert_displacement>
</event>
<event>
 4   1200 +8.5212000e+10 2.05312200e-02 7.81665300e-03            nan
       50 -1    0    0    0    0 +3.1298206447e-02 +9.9557953485e-04 +2.8543974516e+01 2.8543992129e+01 4.9935713700e-03 0.0000e+00 0.0000e+00
       11 -1    0    0    0    0 +1.4303846503e-18 +4.5499785659e-20 +1.3045112689e-15 5.1100000000e-04 5.1099893000e-04 0.0000e+00 1.0000e+00
       50  1    1    2    0    0 +1.5368869999e-02 +1.3488292571e-02 +2.8150497166e+01 2.8150505036e+01 4.9935713700e-03 0.0000e+00 0.0000e+00
       11  1    1    2    0    0 +1.5929336448e-02 -1.2492713036e-02 +3.9347734957e-01 3.9399809312e-01 5.1099893000e-04 0.0000e+00 1.0000e+00
<vert_displacement>
345.70860804253039
</vert_displacement>
</event>
<event>
 4   1200 +8.5212000e+10 2.32801600e-02 7.81665300e-03            nan
       50 -1    0    0    0    0 -4.0618938639e-02 -4.2227028950e-02 +2.1920664565e+01 2.1920743439e+01 4.9935713700e-03 0.0000e+00 0.0000e+00
       11 -1    0    0    0    0 +5.3488064281e-18 +5.5605639008e-18 -2.8865695526e-15 5.1100000000e-04 5.1099893000e-04 0.0000e+00 1.0000e+00
       50  1    1    2    0    0 -6.1662484916e-02 -4.6961543459e-02 +2.1402440027e+01 2.1402580959e+01 4.9935713700e-03 0.0000e+00 0.0000e+00
       11  1    1    2    0    0 +2.1043546276e-02 +4.7345145088e-03 +5.1822453837e-01 5.1867348087e-01 5.1099893000e-04 0.0000e+00 1.0000e+00
<vert_displacement>
276.44879031431645
</vert_displacement>
</event>
<event>
 4   1200 +8.5212000e+10 4.12169300e-02 7.81665300e-03            nan
       50 -1    0    0    0    0 +2.3796723424e-02 +9.9670271116e-03 +1.2501728143e+01 1.2501755762e+01 4.9935713700e-03 0.0000e+00 0.0000e+00
       11 -1    0    0    0    0 -2.0736530133e-18 -8.6852947926e-19 -1.0894040231e-15 5.1100000000e-04 5.1099893000e-04 0.0000e+00 1.0000e+00
       50  1    1    2    0    0 +1.2318172947e-02 -3.1744537346e-02 +1.0562416130e+01 1.0562472196e+01 4.9935713700e-03 0.0000e+00 0.0000e+00
       11  1    1    2    0    0 +1.1478550476e-02 +4.1711564458e-02 +1.9393120131e+00 1.9397945656e+00 5.1099893000e-04 0.0000e+00 1.0000e+00
<vert_displacement>
329.85846903104306
</vert_displacement>
</event>
<event>
 4   1200 +8.5212000e+10 7.89076800e-02 7.81665300e-03            nan
       50 -1    0    0    0    0 -8.7506854787e-02 +6.7114944778e-02 +2.9391384994e+01 2.9391592312e+01 4.9935713700e-03 0.0000e+00 0.0000e+00
       11 -1    0    0    0    0 -6.1976988202e-19 +4.7534357746e-19 +2.0816535178e-16 5.1100000000e-04 5.1099893000e-04 0.0000e+00 1.0000e+00
       50  1    1    2    0    0 -1.4068333964e-01 +4.4359979298e-02 +2.0823646859e+01 2.0824169925e+01 4.9935713700e-03 0.0000e+00 0.0000e+00
       11  1    1    2    0    0 +5.3176484849e-02 +2.2754965480e-02 +8.5677381346e+00 8.5679333874e+00 5.1099893000e-04 0.0000e+00 1.0000e+00
<vert_displacement>
380.41477957491844
</vert_displacement>
</event>
<event>
 4   1200 +8.5212000e+10 8.68354000e-03 7.81665300e-03            nan
       50 -1    0    0    0    0 +2.2361604533e-03 +7.3741029611e-03 +3.1823992432e+00 3.1824124900e+00 4.9935713700e-03 0.0000e+00 0.0000e+00
       11 -1    0    0    0    0 -4.8757033502e-21 -1.6078425168e-20 -6.9388735629e-18 5.1100000000e-04 5.1099893000e-04 0.0000e+00 1.0000e+00
       50  1    1    2    0    0 -3.6191964696e-03 +3.1841819395e-03 +3.1322257448e+00 3.1322334347e+00 4.9935713700e-03 0.0000e+00 0.0000e+00
       11  1    1    2    0    0 +5.8553569229e-03 +4.1899210216e-03 +5.0173498420e-02 5.0690055302e-02 5.1099893000e-04 0.0000e+00 1.0000e+00
<vert_displacement>
125.92170793018033
</vert_displacement>
</event>
<event>
 4   1200 +8.5212000e+10 2.05486500e-02 7.81665300e-03            nan
       50 -1    0    0    0    0 -4.9082568673e-02 -7.9068691307e-03 +1.6147093767e+01 1.6147171074e+01 4.9935713700e-03 0.0000e+00 0.0000e+00
       11 -1    0    0    0    0 +7.9306530216e-18 +1.2775744477e-18 -2.6090117416e-15 5.1100000000e-04 5.1099893000e-04 0.0000e+00 1.0000e+00
       50  1    1    2    0    0 -6.6957978081e-02 -1.3455320705e-02 +1.5748408412e+01 1.5748557295e+01 4.9935713700e-03 0.0000e+00 0.0000e+00
       11  1    1    2    0    0 +1.7875409408e-02 +5.5484515743e-03 +3.9868535539e-01 3.9912477911e-01 5.1099893000e-04 0.0000e+00 1.0000e+00
<vert_displacement>
67.180378271304662
</vert_displacement>
</event>
<event>
 4   1200 +8.5212000e+10 3.53109700e-02 7.81665300e-03            nan
       50 -1    0    0    0    0 +1.1838993451e-02 +7.1330196704e-03 +4.8096126417e+00 4.8096350943e+00 4.9935713700e-03 0.0000e+00 0.0000e+00
       11 -1    0    0    0    0 -2.1350258947e-18 -1.2863578113e-18 -8.6735815640e-16 5.1100000000e-04 5.1099893000e-04 0.0000e+00 1.0000e+00
       50  1    1    2    0    0 +1.3486562113e-02 +3.7830790469e-02 +2.4725278885e+00 2.4728591047e+00 4.9935713700e-03 0.0000e+00 0.0000e+00
       11  1    1    2    0    0 -1.6475686612e-03 -3.0697770799e-02 +2.3370847531e+00 2.3372869896e+00 5.1099893000e-04 0.0000e+00 1.0000e+00
<vert_displacement>
257.21203202795931
</vert_displacement>
</event>
<event>
 4   1200 +8.5212000e+10 3.11087600e-02 7.81665300e-03            nan
       50 -1    0    0    0    0 -1.7234459771e-02 -1.1582512874e-02 +1.2016173638e+01 1.2016192617e+01 4.9935713700e-03 0.0000e+00 0.0000e+00
       11 -1    0    0    0    0 +1.9904490879e-20 +1.3376921871e-20 -1.3877767087e-17 5.1100000000e-04 5.1099893000e-04 0.0000e+00 1.0000e+00
       50  1    1    2    0    0 -3.0295612149e-03 +1.7316587768e-02 +1.1009072675e+01 1.1009087843e+01 4.9935713700e-03 0.0000e+00 0.0000e+00
       11  1    1    2    0    0 -1.4204898556e-02 -2.8899100641e-02 +1.0071009629e+00 1.0076157739e+00 5.1099893000e-04 0.0000e+00 1.0000e+00
<vert_displacement>
407.99666765449371
</vert_displacement>
</event>
<event>
 4   1200 +8.5212000e+10 1.23260800e-02 7.81665300e-03            nan
       50 -1    0    0    0    0 +2.1966772762e-02 -1.8663744971e-02 +1.6315452416e+01 1.6315478643e+01 4.9935713700e-03 0.0000e+00 0.0000e+00
       11 -1    0    0    0    0 +5.2317228937e-19 -4.4450563087e-19 +3.8857745218e-16 5.1100000000e-04 5.1099893000e-04 0.0000e+00 1.0000e+00
       50  1    1    2    0    0 +3.1891497523e-02 -1.3508390076e-02 +1.6190215478e+01 1.6190253293e+01 4.9935713700e-03 0.0000e+00 0.0000e+00
       11  1    1    2    0    0 -9.9247247608e-03 -5.1553548953e-03 +1.2523693849e-01 1.2573635006e-01 5.1099893000e-04 0.0000e+00 1.0000e+00
<vert_displacement>
161.86131465910452
</vert_displacement>
</event>
<event>
 4   1200 +8.5212000e+10 3.57001900e-02 7.81665300e-03            nan
       50 -1    0    0    0    0 -4.9681221242e-03 -1.0273921222e-02 +6.2493725266e+00 6.2493849416e+00 4.9935713700e-03 0.0000e+00 0.0000e+00
       11 -1    0    0    0    0 +1.3239043643e-19 +2.7377928328e-19 -1.6653317602e-16 5.1100000000e-04 5.1099893000e-04 0.0000e+00 1.0000e+00
       50  1    1    2    0    0 -4.0588367689e-03 +2.7820934061e-02 +4.5777890518e+00 4.5778781130e+00 4.9935713700e-03 0.0000e+00 0.0000e+00
       11  1    1    2    0    0 -9.0928535536e-04 -3.8094855282e-02 +1.6715834748e+00 1.6720178286e+00 5.1099893000e-04 0.0000e+00 1.0000e+00
<vert_displacement>
332.06068211094032
</vert_displacement>
</event>
<event>
 4   1200 +8.5212000e+10 3.04845700e-02 7.81665300e-03            nan
       50 -1    0    0    0    0 +5.0563076005e-02 -2.1322183899e-03 +2.4701965294e+01 2.4702017640e+01 4.9935713700e-03 0.0000e+00 0.0000e+00
       11 -1    0    0    0    0 +3.2383677207e-18 -1.3656026794e-19 +1.5820644899e-15 5.1100000000e-04 5.1099893000e-04 0.0000e+00 1.0000e+00
       50  1    1    2    0    0 +6.7868571752e-02 -2.5209576150e-02 +2.3782767316e+01 2.3782878039e+01 4.9935713700e-03 0.0000e+00 0.0000e+00
       11  1    1    2    0    0 -1.7305495747e-02 +2.3077357760e-02 +9.1919797828e-01 9.1965060160e-01 5.1099893000e-04 0.0000e+00 1.0000e+00
<vert_displacement>
232.76975427786388
</vert_displacement>
</event>
<event>
 4   1200 +8.5212000e+10 2.30900300e-02 7.81665300e-03            nan
       50 -1    0    0    0    0 -2.3119876638e-02 -1.2430094460e-02 +1.0201632826e+01 1.0201667819e+01 4.9935713700e-03 0.0000e+00 0.0000e+00
       11 -1    0    0    0    0 -3.4596113586e-19 -1.8600140761e-19 +1.5265516055e-16 5.1100000000e-04 5.1099893000e-04 0.0000e+00 1.0000e+00
       50  1    1    2    0    0 -1.5402774382e-03 -2.1404004778e-02 +9.6773598508e+00 9.6773849320e+00 4.9935713700e-03 0.0000e+00 0.0000e+00
       11  1    1    2    0    0 -2.1579599200e-02 +8.9739103174e-03 +5.2427297482e-01 5.2479388661e-01 5.1099893000e-04 0.0000e+00 1.0000e+00
<vert_displacement>
338.44669441299919
</vert_displacement>
</event>
<event>
 4   1200 +8.5212000e+10 6.01373900e-03 7.81665300e-03            nan
       50 -1    0    0    0    0 +1.8950686970e-02 +3.1657343918e-02 +1.9296186220e+01 1.9296222140e+01 4.9935713700e-03 0.0000e+00 0.0000e+00
       11 -1    0    0    0    0 -8.1775682147e-20 -1.3660723212e-19 -8.3266574632e-17 5.1100000000e-04 5.1099893000e-04 0.0000e+00 1.0000e+00
       50  1    1    2    0    0 +1.6606923973e-02 +3.4044835914e-02 +1.9285190448e+01 1.9285228295e+01 4.9935713700e-03 0.0000e+00 0.0000e+00
       11  1    1    2    0    0 +2.3437629978e-03 -2.3874919959e-03 +1.0995772060e-02 1.1504845332e-02 5.1099893000e-04 0.0000e+00 1.0000e+00
<vert_displacement>
444.83406202644215
</vert_displacement>
</event>
<event>
 4   1200 +8.5212000e+10 4.88150300e-02 7.81665300e-03            nan
       50 -1    0    0    0    0 +1.4890068261e-02 +2.4739638182e-02 +1.0259253854e+01 1.0259295704e+01 4.9935713700e-03 0.0000e+00 0.0000e+00
       11 -1    0    0    0    0 -7.0496487646e-20 -1.1712891888e-19 -4.8572064944e-17 5.1100000000e-04 5.1099893000e-04 0.0000e+00 1.0000e+00
       50  1    1    2    0    0 -3.9076468081e-02 -1.1554494390e-02 +3.5374529273e+00 3.5376911432e+00 4.9935713700e-03 0.0000e+00 0.0000e+00
       11  1    1    2    0    0 +5.3966536342e-02 +3.6294132572e-02 +6.7218009269e+00 6.7221155608e+00 5.1099893000e-04 0.0000e+00 1.0000e+00
<vert_displacement>
84.931151194859368
</vert_displacement>
</event>
<event>
 4   1200 +8.5212000e+10 3.11370800e-02 7.81665300e-03            nan
       50 -1    0    0    0    0 -7.9808325632e-02 +5.8367381645e-02 +2.7520657352e+01 2.7520835418e+01 4.9935713700e-03 0.0000e+00 0.0000e+00
       11 -1    0    0    0    0 +2.9378505309e-18 -2.1485808880e-18 -1.0130719718e-15 5.1100000000e-04 5.1099893000e-04 0.0000e+00 1.0000e+00
       50  1    1    2    0    0 -9.4230411864e-02 +3.0865409199e-02 +2.6563051640e+01 2.6563237178e+01 4.9935713700e-03 0.0000e+00 0.0000e+00
       11  1    1    2    0    0 +1.4422086232e-02 +2.7501972445e-02 +9.5760571199e-01 9.5810924002e-01 5.1099893000e-04 0.0000e+00 1.0000e+00
<vert_displacement>
467.45479788881511
</vert_displacement>
</event>
<event>
 4   1200 +8.5212000e+10 1.08174000e-02 7.81665300e-03            nan
       50 -1    0    0    0    0 -1.9018041418e-02 +5.3396986587e-02 +5.7124423688e+01 5.7124452028e+01 4.9935713700e-03 0.0000e+00 0.0000e+00
       11 -1    0    0    0    0 +2.2408135650e-18 -6.2915359813e-18 -6.7307237733e-15 5.1100000000e-04 5.1099893000e-04 0.0000e+00 1.0000e+00
       50  1    1    2    0    0 -9.5273782961e-03 +5.4917939980e-02 +5.7034183782e+01 5.7034211237e+01 4.9935713700e-03 0.0000e+00 0.0000e+00
       11  1    1    2    0    0 -9.4906631221e-03 -1.5209533927e-03 +9.0239905635e-02 9.0751791578e-02 5.1099893000e-04 0.0000e+00 1.0000e+00
<vert_displacement>
18.043687136727691
</vert_displacement>
</event>
<event>
 4   1200 +8.5212000e+10 1.09631300e-02 7.81665300e-03            nan
       50 -1    0    0    0    0 +6.1566184443e-04 -8.6465027835e-03 +1.7181484281e+01 1.7181487193e+01 4.9935713700e-03 0.0000e+00 0.0000e+00
       11 -1    0    0    0    0 -2.1383077159e-20 +3.0030907040e-19 -5.9674479979e-16 5.1100000000e-04 5.1099893000e-04 0.0000e+00 1.0000e+00
       50  1    1    2    0    0 +9.3780576098e-03 -4.3079445898e-03 +1.7087767418e+01 1.7087771264e+01 4.9935713700e-03 0.0000e+00 0.0000e+00
       11  1    1    2    0    0 -8.7623957654e-03 -4.3385581937e-03 +9.3716863013e-02 9.4226929270e-02 5.1099893000e-04 0.0000e+00 1.0000e+00
<vert_displacement>
328.20506100624772
</vert_displacement>
</event>
<event>
 4   1200 +8.5212000e+10 8.23230900e-03 7.81665300e-03            nan
       50 -1    0    0    0    0 +2.6922348489e-02 +5.6085422464e-03 +2.4627779300e+01 2.4627795160e+01 4.9935713700e-03 0.0000e+00 0.0000e+00
       11 -1    0    0    0    0 -1.2136617017e-19 -2.5283354941e-20 -1.1102223325e-16 5.1100000000e-04 5.1099893000e-04 0.0000e+00 1.0000e+00
       50  1    1    2    0    0 +2.7890106214e-02 -8.6690395268e-04 +2.4585794099e+01 2.4585810441e+01 4.9935713700e-03 0.0000e+00 0.0000e+00
       11  1    1    2    0    0 -9.6775772495e-04 +6.4754461991e-03 +4.1985200726e-02 4.2495719295e-02 5.1099893000e-04 0.0000e+00 1.0000e+00
<vert_displacement>
308.11293260680804
</vert_displacement>
</event>
<event>
 4   1200 +8.5212000e+10 3.25013000e-02 7.81665300e-03            nan
       50 -1    0    0    0    0 +1.3058716768e-02 +5.4951988576e-04 +4.4718087800e+01 4.4718089989e+01 4.9935713700e-03 0.0000e+00 0.0000e+00
       11 -1    0    0    0    0 -7.5379013020e-19 -3.1720013045e-20 -2.5812684220e-15 5.1100000000e-04 5.1099893000e-04 0.0000e+00 1.0000e+00
       50  1    1    2    0    0 -1.8820300150e-02 -5.3172966374e-03 +4.3685009728e+01 4.3685014391e+01 4.9935713700e-03 0.0000e+00 0.0000e+00
       11  1    1    2    0    0 +3.1879016918e-02 +5.8668165231e-03 +1.0330780721e+00 1.0335865979e+00 5.1099893000e-04 0.0000e+00 1.0000e+00
<vert_displacement>
398.97661125166206
</vert_displacement>
</event>
<event>
 4   1200 +8.5212000e+10 1.72083400e-02 7.81665300e-03            nan
       50 -1    0    0    0    0 +1.1037719881e-03 +4.0236898616e-03 +1.6665716740e+00 1.6665843779e+00 4.9935713700e-03 0.0000e+00 0.0000e+00
       11 -1    0    0    0    0 +2.1139859179e-19 +7.7063232238e-19 +3.1918811929e-16 5.1100000000e-04 5.1099893000e-04 0.0000e+00 1.0000e+00
       50  1    1    2    0    0 -9.7443706908e-03 +1.5799452648e-02 +1.3336559930e+00 1.3337945190e+00 4.9935713700e-03 0.0000e+00 0.0000e+00
       11  1    1    2    0    0 +1.0848142679e-02 -1.1775762786e-02 +3.3291568095e-01 3.3330085888e-01 5.1099893000e-04 0.0000e+00 1.0000e+00
<vert_displacement>
353.46889999220343
</vert_displacement>
</event>
<event>
 4   1200 +8.5212000e+10 7.99972200e-03 7.81665300e-03            nan
       50 -1    0    0    0    0 -2.7803479612e-02 -1.3567856381e-02 +1.2387686662e+01 1.2387726301e+01 4.9935713700e-03 0.0000e+00 0.0000e+00
       11 -1    0    0    0    0 -2.0090351850e-18 -9.8039170767e-19 +8.9511452213e-16 5.1100000000e-04 5.1099893000e-04 0.0000e+00 1.0000e+00
       50  1    1    2    0    0 -2.3908541026e-02 -1.8480877296e-02 +1.2349350462e+01 1.2349388444e+01 4.9935713700e-03 0.0000e+00 0.0000e+00
       11  1    1    2    0    0 -3.8949385856e-03 +4.9130209142e-03 +3.8336200090e-02 3.8848856847e-02 5.1099893000e-04 0.0000e+00 1.0000e+00
<vert_displacement>
291.26678343388284
</vert_displacement>
</event>
<event>
 4   1200 +8.5212000e+10 8.54492900e-03 7.81665300e-03            nan
       50 -1    0    0    0    0 -3.2743377878e-03 -4.1830513454e-03 +3.0839639755e+00 3.0839725934e+00 4.9935713700e-03 0.0000e+00 0.0000e+00
       11 -1    0    0    0    0 +2.4311834271e-19 +3.1058998078e-19 -2.2898315913e-16 5.1100000000e-04 5.1099893000e-04 0.0000e+00 1.0000e+00
       50  1    1    2    0    0 -5.3620746727e-05 -1.0285172253e-02 +3.0361594642e+00 3.0361809918e+00 4.9935713700e-03 0.0000e+00 0.0000e+00
       11  1    1    2    0    0 -3.2207170410e-03 +6.1021209078e-03 +4.7804511297e-02 4.8302601567e-02 5.1099893000e-04 0.0000e+00 1.0000e+00
<vert_displacement>
449.36875608784220
</vert_displacement>
</event>
<event>
 4   1200 +8.5212000e+10 7.09908600e-03 7.81665300e-03            nan
       50 -1    0    0    0    0 -1.8857723468e-02 +1.7914930846e-02 +8.3637918538e+00 8.3638337901e+00 4.9935713700e-03 0.0000e+00 0.0000e+00
       11 -1    0    0    0    0 +7.8224752561e-19 -7.4313902996e-19 -3.4694301745e-16 5.1100000000e-04 5.1099893000e-04 0.0000e+00 1.0000e+00
       50  1    1    2    0    0 -2.2972383273e-02 +2.0701080555e-02 +8.3387869041e+00 8.3388457374e+00 4.9935713700e-03 0.0000e+00 0.0000e+00
       11  1    1    2    0    0 +4.1146598045e-03 -2.7861497092e-03 +2.5004949715e-02 2.5499052642e-02 5.1099893000e-04 0.0000e+00 1.0000e+00
<vert_displacement>
154.50822027758920
</vert_displacement>
</event>
<event>
 4   1200 +8.5212000e+10 8.91198500e-03 7.81665300e-03            nan
       50 -1    0    0    0    0 +1.7115521976e-02 +7.8145481876e-03 +5.4215947734e+00 5.4216297209e+00 4.9935713700e-03 0.0000e+00 0.0000e+00
       11 -1    0    0    0    0 +3.7239140425e-19 +1.7002523074e-19 +1.1796048603e-16 5.1100000000e-04 5.1099893000e-04 0.0000e+00 1.0000e+00
       50  1    1    2    0    0 +1.6293793242e-02 +1.5089669485e-02 +5.3677293314e+00 5.3677775938e+00 4.9935713700e-03 0.0000e+00 0.0000e+00
       11  1    1    2    0    0 +8.2172873438e-04 -7.2751212973e-03 +5.3865441956e-02 5.4363127071e-02 5.1099893000e-04 0.0000e+00 1.0000e+00
<vert_displacement>
293.51730070740768
</vert_displacement>
</event>
<event>
 4   1200 +8.5212000e+10 3.50054400e-02 7.81665300e-03            nan
       50 -1    0    0    0    0 -5.0113890390e-02 -7.5128242512e-02 +2.9656086259e+01 2.9656224183e+01 4.9935713700e-03 0.0000e+00 0.0000e+00
       11 -1    0    0    0    0 -2.2747529974e-18 -3.4101961255e-18 +1.3461391758e-15 5.1100000000e-04 5.1099893000e-04 0.0000e+00 1.0000e+00
       50  1    1    2    0    0 -7.9511023837e-02 -8.6523294053e-02 +2.8430711934e+01 2.8430955213e+01 4.9935713700e-03 0.0000e+00 0.0000e+00
       11  1    1    2    0    0 +2.9397133447e-02 +1.1395051542e-02 +1.2253743242e+00 1.2257799698e+00 5.1099893000e-04 0.0000e+00 1.0000e+00
<vert_displacement>
76.437783003850541
</vert_displacement>
</event>
<event>
 4   1200 +8.5212000e+10 3.36816800e-02 7.81665300e-03            nan
       50 -1    0    0    0    0 -4.0561264466e-03 +4.8697196328e-03 +1.1771559069e+01 1.1771561834e+01 4.9935713700e-03 0.0000e+00 0.0000e+00
       11 -1    0    0    0    0 +1.1954672627e-20 -1.4352586084e-20 -3.4694464491e-17 5.1100000000e-04 5.1099893000e-04 0.0000e+00 1.0000e+00
       50  1    1    2    0    0 -3.4117886639e-02 -9.0683095923e-03 +1.0561158281e+01 1.0561218463e+01 4.9935713700e-03 0.0000e+00 0.0000e+00
       11  1    1    2    0    0 +3.0061760192e-02 +1.3938029225e-02 +1.2104007881e+00 1.2108543707e+00 5.1099893000e-04 0.0000e+00 1.0000e+00
<vert_displacement>
274.62549017470053
</vert_displacement>
</event>
<event>
 4   1200 +8.5212000e+10 6.25047200e-03 7.81665300e-03            nan
       50 -1    0    0    0    0 +4.0148114387e-02 -2.2115175831e-02 +1.3593805704e+01 1.3593883897e+01 4.9935713700e-03 0.0000e+00 0.0000e+00
       11 -1    0    0    0    0 -2.7665953422e-18 +1.5239505860e-18 -9.3674535197e-16 5.1100000000e-04 5.1099893000e-04 0.0000e+00 1.0000e+00
       50  1    1    2    0    0 +3.9941612098e-02 -2.5848341476e-02 +1.3579957105e+01 1.3580041362e+01 4.9935713700e-03 0.0000e+00 0.0000e+00
       11  1    1    2    0    0 +2.0650228872e-04 +3.7331656442e-03 +1.3848598261e-02 1.4353534848e-02 5.1099893000e-04 0.0000e+00 1.0000e+00
<vert_displacement>
191.79582845711312
</vert_displacement>
</event>
<event>
 4   1200 +8.5212000e+10 7.00774200e-03 7.81665300e-03            nan
       50 -1    0    0    0    0 -3.9044172242e-03 +3.9065646846e-03 +8.3840379794e+00 8.3840412858e+00 4.9935713700e-03 0.0000e+00 0.0000e+00
       11 -1    0    0    0    0 -5.1702687536e-20 +5.1731124424e-20 +1.1102227837e-16 5.1100000000e-04 5.1099893000e-04 0.0000e+00 1.0000e+00
       50  1    1    2    0    0 +9.9643759492e-04 +3.3831949409e-03 +8.3603194026e+00 8.3603216378e+00 4.9935713700e-03 0.0000e+00 0.0000e+00
       11  1    1    2    0    0 -4.9008548191e-03 +5.2336974364e-04 +2.3718576870e-02 2.4230647999e-02 5.1099893000e-04 0.0000e+00 1.0000e+00
<vert_displacement>
357.76500716532212
</vert_displacement>
</event>
<event>
 4   1200 +8.5212000e+10 1.55518900e-02 7.81665300e-03            nan
       50 -1    0    0    0    0 +2.7367416702e-03 -4.0259900545e-03 +3.2363687164e+00 3.2363762301e+00 4.9935713700e-03 0.0000e+00 0.0000e+00
       11 -1    0    0    0    0 +1.1735336899e-19 -1.7263722827e-19 +1.3877772108e-16 5.1100000000e-04 5.1099893000e-04 0.0000e+00 -1.0000e+00
       50  1    1    2    0    0 -1.0064367325e-02 +3.8719665973e-03 +3.0078388679e+00 3.0078623431e+00 4.9935713700e-03 0.0000e+00 0.0000e+00
       11  1    1    2    0    0 +1.2801108995e-02 -7.8979566518e-03 +2.2852984850e-01 2.2902488705e-01 5.1099893000e-04 0.0000e+00 -1.0000e+00
<vert_displacement>
493.47203171213323
</vert_displacement>
</event>
<event>
 4   1200 +8.5212000e+10 1.00120600e-02 7.81665300e-03            nan
       50 -1    0    0    0    0 +4.8871766616e-03 +2.5840915015e-03 +2.0746498283e+00 2.0746632035e+00 4.9935713700e-03 0.0000e+00 0.0000e+00
       11 -1    0    0    0    0 +5.5575177196e-19 +2.9385339027e-19 +2.3592155515e-16 5.1100000000e-04 5.1099893000e-04 0.0000e+00 1.0000e+00
       50  1    1    2    0    0 +5.9591579422e-03 +1.1075763264e-02 +1.9980752899e+00 1.9981211134e+00 4.9935713700e-03 0.0000e+00 0.0000e+00
       11  1    1    2    0    0 -1.0719812806e-03 -8.4916717622e-03 +7.6574538433e-02 7.7053090070e-02 5.1099893000e-04 0.0000e+00 1.0000e+00
<vert_displacement>
210.83772529540545
</vert_displacement>
</event>
<event>
 4   1200 +8.5212000e+10 1.28626100e-02 7.81665300e-03            nan
       50 -1    0    0    0    0 +3.7356220272e-02 +2.5283990606e-02 +1.1168911334e+01 1.1169003540e+01 4.9935713700e-03 0.0000e+00 0.0000e+00
       11 -1    0    0    0    0 +2.8545910576e-18 +1.9320866233e-18 +8.5347698948e-16 5.1100000000e-04 5.1099893000e-04 0.0000e+00 1.0000e+00
       50  1    1    2    0    0 +4.8727304200e-02 +2.5601586510e-02 +1.1029639346e+01 1.1029777823e+01 4.9935713700e-03 0.0000e+00 0.0000e+00
       11  1    1    2    0    0 -1.1371083929e-02 -3.1759590403e-04 +1.3927198779e-01 1.3973671715e-01 5.1099893000e-04 0.0000e+00 1.0000e+00
<vert_displacement>
112.04265538855279
</vert_displacement>
</event>
<event>
 4   1200 +8.5212000e+10 4.38210500e-02 7.81665300e-03            nan
       50 -1    0    0    0    0 +3.4631518372e-02 +8.2118119539e-02 +5.9586843049e+01 5.9586909907e+01 4.9935713700e-03 0.0000e+00 0.0000e+00
       11 -1    0    0    0    0 +1.0566038989e-18 +2.5054149905e-18 +1.8179881694e-15 5.1100000000e-04 5.1099893000e-04 0.0000e+00 1.0000e+00
       50  1    1    2    0    0 +1.2897789358e-02 +4.1134698676e-02 +5.7670698532e+01 5.7670714861e+01 4.9935713700e-03 0.0000e+00 0.0000e+00
       11  1    1    2    0    0 +2.1733729014e-02 +4.0983420863e-02 +1.9161445173e+00 1.9167060463e+00 5.1099893000e-04 0.0000e+00 1.0000e+00
<vert_displacement>
233.25992388835016
</vert_displacement>
</event>
<event>
 4   1200 +8.5212000e+10 2.09507700e-02 7.81665300e-03            nan
       50 -1    0    0    0    0 -4.1789372022e-03 -2.0184295053e-03 +1.4540090580e+01 1.4540092178e+01 4.9935713700e-03 0.0000e+00 0.0000e+00
       11 -1    0    0    0    0 +3.1709258195e-19 +1.5315593232e-19 -1.1032840745e-15 5.1100000000e-04 5.1099893000e-04 0.0000e+00 1.0000e+00
       50  1    1    2    0    0 -1.6632060539e-02 -1.7957984314e-02 +1.4122999574e+01 1.4123021667e+01 4.9935713700e-03 0.0000e+00 0.0000e+00
       11  1    1    2    0    0 +1.2453123336e-02 +1.5939554808e-02 +4.1709100607e-01 4.1758151079e-01 5.1099893000e-04 0.0000e+00 1.0000e+00
<vert_displacement>
295.63821867980556
</vert_displacement>
</event>
<event>
 4   1200 +8.5212000e+10 2.23016800e-02 7.81665300e-03            nan
       50 -1    0    0    0    0 +2.2261109483e-02 +1.2020487332e-02 +1.1829824007e+01 1.1829852113e+01 4.9935713700e-03 0.0000e+00 0.0000e+00
       11 -1    0    0    0    0 +1.0184797033e-18 +5.4995562468e-19 +5.4123248682e-16 5.1100000000e-04 5.1099893000e-04 0.0000e+00 1.0000e+00
       50  1    1    2    0    0 +4.3021994481e-02 +9.8179752833e-03 +1.1347831198e+01 1.1347918096e+01 4.9935713700e-03 0.0000e+00 0.0000e+00
       11  1    1    2    0    0 -2.0760884998e-02 +2.2025120485e-03 +4.8199280889e-01 4.8244501692e-01 5.1099893000e-04 0.0000e+00 1.0000e+00
<vert_displacement>
71.710586621738756
</vert_displacement>
</event>
<event>
 4   1200 +8.5212000e+10 1.75706000e-02 7.81665300e-03            nan
       50 -1    0    0    0    0 -1.6240870816e-02 -9.2554574503e-03 +5.8095871656e+00 5.8096193851e+00 4.9935713700e-03 0.0000e+00 0.0000e+00
       11 -1    0    0    0    0 +6.0133119287e-19 +3.4269069265e-19 -2.1510459753e-16 5.1100000000e-04 5.1099893000e-04 0.0000e+00 1.0000e+00
       50  1    1    2    0    0 +4.8402694685e-04 -3.2444339156e-03 +5.5171489911e+00 5.5171522262e+00 4.9935713700e-03 0.0000e+00 0.0000e+00
       11  1    1    2    0    0 -1.6724897763e-02 -6.0110235346e-03 +2.9243817450e-01 2.9297815897e-01 5.1099893000e-04 0.0000e+00 1.0000e+00
<vert_displacement>
233.41304190453272
</vert_displacement>
</event>
<event>
 4   1200 +8.5212000e+10 1.32097800e-02 7.81665300e-03            nan
       50 -1    0    0    0    0 +3.4092821354e-02 +1.3079458419e-02 +1.5349722136e+01 1.5349766382e+01 4.9935713700e-03 0.0000e+00 0.0000e+00
       11 -1    0    0    0    0 +1.4487027898e-18 +5.5578409614e-19 +6.5225418134e-16 5.1100000000e-04 5.1099893000e-04 0.0000e+00 1.0000e+00
       50  1    1    2    0    0 +4.5892211656e-02 +1.4529312554e-02 +1.5201921479e+01 1.5201998513e+01 4.9935713700e-03 0.0000e+00 0.0000e+00
       11  1    1    2    0    0 -1.1799390302e-02 -1.4498541348e-03 +1.4780065678e-01 1.4827886887e-01 5.1099893000e-04 0.0000e+00 1.0000e+00
<vert_displacement>
291.55986554449981
</vert_displacement>
</event>
<event>
 4   1200 +8.5212000e+10 6.58718300e-03 7.81665300e-03            nan
       50 -1    0    0    0    0 +1.1755648334e-02 -9.5617003930e-03 +4.3211779448e+00 4.3212073993e+00 4.9935713700e-03 0.0000e+00 0.0000e+00
       11 -1    0    0    0    0 +1.5101566482e-18 -1.2283172315e-18 +5.5510809917e-16 5.1100000000e-04 5.1099893000e-04 0.0000e+00 1.0000e+00
       50  1    1    2    0    0 +1.2677769149e-02 -5.3369000858e-03 +4.3030480234e+00 4.3030729061e+00 4.9935713700e-03 0.0000e+00 0.0000e+00
       11  1    1    2    0    0 -9.2212081472e-04 -4.2248003072e-03 +1.8129921483e-02 1.8645493217e-02 5.1099893000e-04 0.0000e+00 1.0000e+00
<vert_displacement>
375.85295864561823
</vert_displacement>
</event>
<event>
 4   1200 +8.5212000e+10 2.49620800e-02 7.81665300e-03            nan
       50 -1    0    0    0    0 -5.7042810991e-02 +2.7336892274e-03 +1.8422630137e+01 1.8422719328e+01 4.9935713700e-03 0.0000e+00 0.0000e+00
       11 -1    0    0    0    0 -4.4689014881e-18 +2.1416524965e-19 +1.4432829975e-15 5.1100000000e-04 5.1099893000e-04 0.0000e+00 1.0000e+00
       50  1    1    2    0    0 -3.5983905933e-02 -1.2525285007e-02 +1.7817476611e+01 1.7817518049e+01 4.9935713700e-03 0.0000e+00 0.0000e+00
       11  1    1    2    0    0 -2.1058905058e-02 +1.5258974234e-02 +6.0515352639e-01 6.0571227938e-01 5.1099893000e-04 0.0000e+00 1.0000e+00
<vert_displacement>
264.44282033309918
</vert_displacement>
</event>
<event>
 4   1200 +8.5212000e+10 5.88700700e-03 7.81665300e-03            nan
       50 -1    0    0    0    0 +1.6626929623e-02 -7.0836160733e-03 +4.9607039359e+00 4.9607393711e+00 4.9935713700e-03 0.0000e+00 0.0000e+00
       11 -1    0    0    0    0 -2.7908555663e-19 +1.1889957915e-19 -8.3266174248e-17 5.1100000000e-04 5.1099893000e-04 0.0000e+00 1.0000e+00
       50  1    1    2    0    0 +1.7987063485e-02 -4.2801648997e-03 +4.9511720919e+00 4.9512091325e+00 4.9935713700e-03 0.0000e+00 0.0000e+00
       11  1    1    2    0    0 -1.3601338618e-03 -2.8034511736e-03 +9.5318440197e-03 1.0041238615e-02 5.1099893000e-04 0.0000e+00 1.0000e+00
<vert_displacement>
490.94791191954289
</vert_displacement>
</event>
<event>
 4   1200 +8.5212000e+10 9.47950800e-03 7.81665300e-03            nan
       50 -1    0    0    0    0 -4.9757078681e-02 +4.8095086947e-02 +2.1278778726e+01 2.1278891840e+01 4.9935713700e-03 0.0000e+00 0.0000e+00
       11 -1    0    0    0    0 +8.1127133415e-19 -7.8417315462e-19 -3.4694286048e-16 5.1100000000e-04 5.1099893000e-04 0.0000e+00 1.0000e+00
       50  1    1    2    0    0 -5.3888958880e-02 +5.4777392129e-02 +2.1215033360e+01 2.1215173107e+01 4.9935713700e-03 0.0000e+00 0.0000e+00
       11  1    1    2    0    0 +4.1318801989e-03 -6.6823051821e-03 +6.3745366654e-02 6.4229732416e-02 5.1099893000e-04 0.0000e+00 1.0000e+00
<vert_displacement>
19.797616092894266
</vert_displacement>
</event>
<event>
 4   1200 +8.5212000e+10 7.01803000e-03 7.81665300e-03            nan
       50 -1    0    0    0    0 +1.0964639591e-02 -1.7331524320e-04 +1.0041979841e+01 1.0041987070e+01 4.9935713700e-03 0.0000e+00 0.0000e+00
       11 -1    0    0    0    0 -3.4851609207e-19 +5.5089043971e-21 -3.1918892926e-16 5.1100000000e-04 5.1099893000e-04 0.0000e+00 1.0000e+00
       50  1    1    2    0    0 +1.0373356332e-02 -5.0716274021e-03 +1.0018128853e+01 1.0018136752e+01 4.9935713700e-03 0.0000e+00 0.0000e+00
       11  1    1    2    0    0 +5.9128325900e-04 +4.8983121589e-03 +2.3850987789e-02 2.4361318033e-02 5.1099893000e-04 0.0000e+00 1.0000e+00
<vert_displacement>
317.69586670647823
</vert_displacement>
</event>
<event>
 4   1200 +8.5212000e+10 3.51139800e-02 7.81665300e-03            nan
       50 -1    0    0    0    0 +7.2506327381e-02 -1.7658826873e-02 +2.8850797023e+01 2.8850893969e+01 4.9935713700e-03 0.0000e+00 0.0000e+00
       11 -1    0    0    0    0 +8.7192050468e-18 -2.1235516671e-18 +3.4694353458e-15 5.1100000000e-04 5.1099893000e-04 0.0000e+00 1.0000e+00
       50  1    1    2    0    0 +8.8921552147e-02 +1.1855842376e-02 +2.7615790089e+01 2.7615936247e+01 4.9935713700e-03 0.0000e+00 0.0000e+00
       11  1    1    2    0    0 -1.6415224766e-02 -2.9514669248e-02 +1.2350069340e+00 1.2354687222e+00 5.1099893000e-04 0.0000e+00 1.0000e+00
<vert_displacement>
311.90228493434279
</vert_displacement>
</event>
<event>
 4   1200 +8.5212000e+10 1.34741500e-02 7.81665300e-03            nan
       50 -1    0    0    0    0 +2.1831028597e-03 +1.7814421318e-02 +9.7273614958e+00 9.7273793349e+00 4.9935713700e-03 0.0000e+00 0.0000e+00
       11 -1    0    0    0    0 +3.1145739463e-20 +2.5415354232e-19 +1.3877764186e-16 5.1100000000e-04 5.1099893000e-04 0.0000e+00 1.0000e+00
       50  1    1    2    0    0 +5.7572720555e-03 +5.5462390845e-03 +9.5716290599e+00 9.5716337008e+00 4.9935713700e-03 0.0000e+00 0.0000e+00
       11  1    1    2    0    0 -3.5741691957e-03 +1.2268182233e-02 +1.5573243592e-01 1.5625663410e-01 5.1099893000e-04 0.0000e+00 1.0000e+00
<vert_displacement>
435.17016930850662
</vert_displacement>
</event>
<event>
 4   1200 +8.5212000e+10 5.21806400e-03 7.81665300e-03            nan
       50 -1    0    0    0    0 -1.0179894309e-02 -1.3860438100e-02 +1.8551959397e+01 1.8551968039e+01 4.9935713700e-03 0.0000e+00 0.0000e+00
       11 -1    0    0    0    0 -1.1041842355e-18 -1.5034023715e-18 +2.0122783676e-15 5.1100000000e-04 5.1099893000e-04 0.0000e+00 1.0000e+00
       50  1    1    2    0    0 -1.1124556728e-02 -1.2676509962e-02 +1.8549716343e+01 1.8549724682e+01 4.9935713700e-03 0.0000e+00 0.0000e+00
       11  1    1    2    0    0 +9.4466241845e-04 -1.1839281381e-03 +2.2430537524e-03 2.7543570872e-03 5.1099893000e-04 0.0000e+00 1.0000e+00
<vert_displacement>
209.42373630732448
</vert_displacement>
</event>
<event>
 4   1200 +8.5212000e+10 6.94652100e-03 7.81665300e-03            nan
       50 -1    0    0    0    0 -2.4425095898e-02 +1.6809021793e-02 +1.7218161673e+01 1.7218187927e+01 4.9935713700e-03 0.0000e+00 0.0000e+00
       11 -1    0    0    0    0 -9.2526674390e-19 +6.3675610229e-19 +6.5225505988e-16 5.1100000000e-04 5.1099893000e-04 0.0000e+00 1.0000e+00
       50  1    1    2    0    0 -2.2003152799e-02 +1.2590471795e-02 +1.7195321721e+01 1.7195341133e+01 4.9935713700e-03 0.0000e+00 0.0000e+00
       11  1    1    2    0    0 -2.4219430993e-03 +4.2185499980e-03 +2.2839952630e-02 2.3357793743e-02 5.1099893000e-04 0.0000e+00 1.0000e+00
<vert_displacement>
389.99645121488959
</vert_displacement>
</event>
<event>
 4   1200 +8.5212000e+10 1.21330000e-02 7.81665300e-03            nan
       50 -1    0    0    0    0 -2.8922394152e-02 +8.4348371212e-04 +1.7326823991e+01 1.7326848870e+01 4.9935713700e-03 0.0000e+00 0.0000e+00
       11 -1    0    0    0    0 -3.4979360160e-18 +1.0201271859e-19 +2.0955430371e-15 5.1100000000e-04 5.1099893000e-04 0.0000e+00 1.0000e+00
       50  1    1    2    0    0 -2.9486685900e-02 +1.1868845124e-02 +1.7206338149e+01 1.7206368233e+01 4.9935713700e-03 0.0000e+00 0.0000e+00
       11  1    1    2    0    0 +5.6429174799e-04 -1.1025361412e-02 +1.2048584241e-01 1.2099163756e-01 5.1099893000e-04 0.0000e+00 1.0000e+00
<vert_displacement>
343.82364410872293
</vert_displacement>
</event>
<event>
 4   1200 +8.5212000e+10 9.04868000e-03 7.81665300e-03            nan
       50 -1    0    0    0    0 -1.6417513335e-02 +1.5470930891e-02 +7.8869025760e+00 7.8869364181e+00 4.9935713700e-03 0.0000e+00 0.0000e+00
       11 -1    0    0    0    0 +1.0110844059e-19 -9.5278844296e-20 -4.8572058644e-17 5.1100000000e-04 5.1099893000e-04 0.0000e+00 1.0000e+00
       50  1    1    2    0    0 -1.1439680205e-02 +2.1132623100e-02 +7.8307803325e+00 7.8308187953e+00 4.9935713700e-03 0.0000e+00 0.0000e+00
       11  1    1    2    0    0 -4.9778331305e-03 -5.6616922095e-03 +5.6122243475e-02 5.6628622744e-02 5.1099893000e-04 0.0000e+00 1.0000e+00
<vert_displacement>
340.62909342462859
</vert_displacement>
</event>
<event>
 4   1200 +8.5212000e+10 3.78106200e-02 7.81665300e-03            nan
       50 -1    0    0    0    0 +2.5817643384e-02 +1.8564104518e-03 +1.2547387536e+01 1.2547415228e+01 4.9935713700e-03 0.0000e+00 0.0000e+00
       11 -1    0    0    0    0 -1.2849763023e-19 -9.2395862876e-21 -6.2449912253e-17 5.1100000000e-04 5.1099893000e-04 0.0000e+00 1.0000e+00
       50  1    1    2    0    0 +4.5847468938e-02 -2.7761390040e-02 +1.0975545284e+01 1.0975677286e+01 4.9935713700e-03 0.0000e+00 0.0000e+00
       11  1    1    2    0    0 -2.0029825554e-02 +2.9617800492e-02 +1.5718422519e+00 1.5722489415e+00 5.1099893000e-04 0.0000e+00 1.0000e+00
<vert_displacement>
253.05450163872013
</vert_displacement>
</event>
<event>
 4   1200 +8.5212000e+10 1.58895700e-02 7.81665300e-03            nan
       50 -1    0    0    0    0 -7.8840162392e-03 +4.3244560012e-03 +2.3062682391e+00 2.3062911753e+00 4.9935713700e-03 0.0000e+00 0.0000e+00
       11 -1    0    0    0    0 -2.3720543633e-20 +1.3010938100e-20 +6.9388411612e-18 5.1100000000e-04 5.1099893000e-04 0.0000e+00 1.0000e+00
       50  1    1    2    0    0 -2.5252613431e-03 +1.8251977521e-02 +2.0561586862e+00 2.0562473076e+00 4.9935713700e-03 0.0000e+00 0.0000e+00
       11  1    1    2    0    0 -5.3587548961e-03 -1.3927521520e-02 +2.5010955297e-01 2.5055486768e-01 5.1099893000e-04 0.0000e+00 1.0000e+00
<vert_displacement>
12.618542636406042
</vert_displacement>
</event>
<event>
 4   1200 +8.5212000e+10 1.84234300e-02 7.81665300e-03            nan
       50 -1    0    0    0    0 +1.1906661787e-02 +1.8357007530e-03 +3.6728929171e+00 3.6729160696e+00 4.9935713700e-03 0.0000e+00 0.0000e+00
       11 -1    0    0    0    0 -5.5110676997e-19 -8.4966477655e-20 -1.7000198614e-16 5.1100000000e-04 5.1099893000e-04 0.0000e+00 1.0000e+00
       50  1    1    2    0    0 -4.6543900469e-03 +1.0351730949e-02 +3.3336274179e+00 3.3336504794e+00 4.9935713700e-03 0.0000e+00 0.0000e+00
       11  1    1    2    0    0 +1.6561051833e-02 -8.5160301961e-03 +3.3926549917e-01 3.3977659021e-01 5.1099893000e-04 0.0000e+00 1.0000e+00
<vert_displacement>
308.56209087650302
</vert_displacement>
</event>
<event>
 4   1200 +8.5212000e+10 6.89454100e-03 7.81665300e-03            nan
       50 -1    0    0    0    0 -1.4447355205e-02 +3.2236143583e-02 +1.2357757140e+01 1.2357808639e+01 4.9935713700e-03 0.0000e+00 0.0000e+00
       11 -1    0    0    0    0 +1.3790692939e-19 -3.0770943982e-19 -1.1796071441e-16 5.1100000000e-04 5.1099893000e-04 0.0000e+00 1.0000e+00
       50  1    1    2    0    0 -1.5097440579e-02 +2.7472842808e-02 +1.2335615546e+01 1.2335656388e+01 4.9935713700e-03 0.0000e+00 0.0000e+00
       11  1    1    2    0    0 +6.5008537429e-04 +4.7633007749e-03 +2.2141593780e-02 2.2663250876e-02 5.1099893000e-04 0.0000e+00 1.0000e+00
<vert_displacement>
68.877116773454347
</vert_displacement>
</event>
<event>
 4   1200 +8.5212000e+10 8.87326700e-03 7.81665300e-03            nan
       50 -1    0    0    0    0 +2.0778094690e-02 -1.3314271507e-02 +6.0974250669e+00 6.0974770505e+00 4.9935713700e-03 0.0000e+00 0.0000e+00
       11 -1    0    0    0    0 -3.1921236659e-18 +2.0454619063e-18 -9.3674300496e-16 5.1100000000e-04 5.1099893000e-04 0.0000e+00 1.0000e+00
       50  1    1    2    0    0 +1.4836147144e-02 -1.7738156549e-02 +6.0443253521e+00 6.0443716507e+00 4.9935713700e-03 0.0000e+00 0.0000e+00
       11  1    1    2    0    0 +5.9419475457e-03 +4.4238850412e-03 +5.3099714809e-02 5.3616399844e-02 5.1099893000e-04 0.0000e+00 1.0000e+00
<vert_displacement>
376.53492322324001
</vert_displacement>
</event>
<event>
 4   1200 +8.5212000e+10 2.05424900e-02 7.81665300e-03            nan
       50 -1    0    0    0    0 -1.8394026456e-02 +7.0617868247e-03 +2.1590329427e+01 2.1590338994e+01 4.9935713700e-03 0.0000e+00 0.0000e+00
       11 -1    0    0    0    0 +1.1823269796e-20 -4.5391590074e-21 -1.3877782029e-17 5.1100000000e-04 5.1099893000e-04 0.0000e+00 1.0000e+00
       50  1    1    2    0    0 +7.8000711661e-04 +4.3378800044e-04 +2.1194564286e+01 2.1194564893e+01 4.9935713700e-03 0.0000e+00 0.0000e+00
       11  1    1    2    0    0 -1.9174033573e-02 +6.6279988243e-03 +3.9576514022e-01 3.9628510099e-01 5.1099893000e-04 0.0000e+00 1.0000e+00
<vert_displacement>
369.66774359627738
</vert_displacement>
</event>
<event>
 4   1200 +8.5212000e+10 1.85531500e-02 7.81665300e-03            nan
       50 -1    0    0    0    0 -1.7572399261e-02 +1.1449847003e-02 +5.8434445332e+00 5.8434843062e+00 4.9935713700e-03 0.0000e+00 0.0000e+00
       11 -1    0    0    0    0 -2.0031838909e-18 +1.3052371921e-18 +6.6612952404e-16 5.1100000000e-04 5.1099893000e-04 0.0000e+00 1.0000e+00
       50  1    1    2    0    0 -1.5291911680e-02 +2.8622963740e-02 +5.5121170028e+00 5.5122147913e+00 4.9935713700e-03 0.0000e+00 0.0000e+00
       11  1    1    2    0    0 -2.2804875812e-03 -1.7173116737e-02 +3.3132753041e-01 3.3178051494e-01 5.1099893000e-04 0.0000e+00 1.0000e+00
<vert_displacement>
57.846292926867079
</vert_displacement>
</event>
<event>
 4   1200 +8.5212000e+10 1.05239200e-02 7.81665300e-03            nan
       50 -1    0    0    0    0 -2.7379093514e-02 -2.1421167280e-02 +2.9346323597e+01 2.9346344612e+01 4.9935713700e-03 0.0000e+00 0.0000e+00
       11 -1    0    0    0    0 +1.6831726026e-19 +1.3168997674e-19 -1.8041111492e-16 5.1100000000e-04 5.1099893000e-04 0.0000e+00 1.0000e+00
       50  1    1    2    0    0 -2.5132419336e-02 -3.0366157153e-02 +2.9262106078e+01 2.9262133053e+01 4.9935713700e-03 0.0000e+00 0.0000e+00
       11  1    1    2    0    0 -2.2466741782e-03 +8.9449898729e-03 +8.4217518670e-02 8.4722558741e-02 5.1099893000e-04 0.0000e+00 1.0000e+00
<vert_displacement>
383.38503318513909
</vert_displacement>
</event>
<event>
 4   1200 +8.5212000e+10 3.31292200e-02 7.81665300e-03            nan
       50 -1    0    0    0    0 -3.1034453195e-02 +1.7388125741e-03 +1.6754710658e+01 1.6754740234e+01 4.9935713700e-03 0.0000e+00 0.0000e+00
       11 -1    0    0    0    0 +1.1053380404e-18 -6.1930386567e-20 -5.9674384882e-16 5.1100000000e-04 5.1099893000e-04 0.0000e+00 1.0000e+00
       50  1    1    2    0    0 +2.6497826283e-03 -6.9829719156e-03 +1.5629541865e+01 1.5629544447e+01 4.9935713700e-03 0.0000e+00 0.0000e+00
       11  1    1    2    0    0 -3.3684235823e-02 +8.7217844897e-03 +1.1251687926e+00 1.1257067870e+00 5.1099893000e-04 0.0000e+00 1.0000e+00
<vert_displacement>
345.61425318039005
</vert_displacement>
</event>
<event>
 4   1200 +8.5212000e+10 1.10152400e-02 7.81665300e-03            nan
       50 -1    0    0    0    0 -1.2922324453e-02 +1.0614748605e-02 +4.6799082758e+00 4.6799408186e+00 4.9935713700e-03 0.0000e+00 0.0000e+00
       11 -1    0    0    0    0 +1.1879070611e-18 -9.7577915376e-19 -4.3020867540e-16 5.1100000000e-04 5.1099893000e-04 0.0000e+00 1.0000e+00
       50  1    1    2    0    0 -2.2473474278e-02 +1.0244676232e-02 +4.5835541758e+00 4.5836234388e+00 4.9935713700e-03 0.0000e+00 0.0000e+00
       11  1    1    2    0    0 +9.5511498254e-03 +3.7007237294e-04 +9.6354100021e-02 9.6828379762e-02 5.1099893000e-04 0.0000e+00 1.0000e+00
<vert_displacement>
444.06363754240544
</vert_displacement>
</event>
<event>
 4   1200 +8.5212000e+10 2.23633700e-02 7.81665300e-03            nan
       50 -1    0    0    0    0 +3.5860528862e-02 +2.7331215280e-02 +5.1907086708e+01 5.1907106531e+01 4.9935713700e-03 0.0000e+00 0.0000e+00
       11 -1    0    0    0    0 -1.2080381776e-18 -9.2071011069e-19 -1.7486006041e-15 5.1100000000e-04 5.1099893000e-04 0.0000e+00 -1.0000e+00
       50  1    1    2    0    0 +4.3664474359e-02 +4.7310831420e-02 +5.1437867351e+01 5.1437907884e+01 4.9935713700e-03 0.0000e+00 0.0000e+00
       11  1    1    2    0    0 -7.8039454971e-03 -1.9979616141e-02 +4.6921935712e-01 4.6970964738e-01 5.1099893000e-04 0.0000e+00 -1.0000e+00
<vert_displacement>
451.22640466855790
</vert_displacement>
</event>
<event>
 4   1200 +8.5212000e+10 3.14173300e-02 7.81665300e-03            nan
       50 -1    0    0    0    0 +2.1902432577e-02 -1.2907278445e-02 +1.2800477726e+01 1.2800503945e+01 4.9935713700e-03 0.0000e+00 0.0000e+00
       11 -1    0    0    0    0 +4.6304177210e-19 -2.7287421447e-19 +2.7061632853e-16 5.1100000000e-04 5.1099893000e-04 0.0000e+00 1.0000e+00
       50  1    1    2    0    0 +4.3344490907e-02 +8.7205110318e-03 +1.1777043364e+01 1.1777127414e+01 4.9935713700e-03 0.0000e+00 0.0000e+00
       11  1    1    2    0    0 -2.1442058330e-02 -2.1627789477e-02 +1.0234343615e+00 1.0238875312e+00 5.1099893000e-04 0.0000e+00 1.0000e+00
<vert_displacement>
21.697156082470165
</vert_displacement>
</event>
<event>
 4   1200 +8.5212000e+10 1.98767600e-02 7.81665300e-03            nan
       50 -1    0    0    0    0 +7.6483382869e-03 +3.8134959316e-03 +1.0811693054e+01 1.0811697585e+01 4.9935713700e-03 0.0000e+00 0.0000e+00
       11 -1    0    0    0    0 +9.0319456502e-19 +4.5033687972e-19 +1.2767560794e-15 5.1100000000e-04 5.1099893000e-04 0.0000e+00 1.0000e+00
       50  1    1    2    0    0 -1.0841405909e-02 +9.8476024696e-03 +1.0436451390e+01 1.0436462862e+01 4.9935713700e-03 0.0000e+00 0.0000e+00
       11  1    1    2    0    0 +1.8489744196e-02 -6.0341065380e-03 +3.7524166406e-01 3.7574572339e-01 5.1099893000e-04 0.0000e+00 1.0000e+00
<vert_displacement>
398.28032777412614
</vert_displacement>
</event>
<event>
 4   1200 +8.5212000e+10 1.11281600e-02 7.81665300e-03            nan
       50 -1    0    0    0    0 +7.2853538682e-02 -2.9685664068e-02 +2.9267053945e+01 2.9267160102e+01 4.9935713700e-03 0.0000e+00 0.0000e+00
       11 -1    0    0    0    0 +2.3490876949e-18 -9.5718381617e-19 +9.4368616175e-16 5.1100000000e-04 5.1099893000e-04 0.0000e+00 1.0000e+00
       50  1    1    2    0    0 +6.9178629734e-02 -2.0253753210e-02 +2.9169977056e+01 2.9170066546e+01 4.9935713700e-03 0.0000e+00 0.0000e+00
       11  1    1    2    0    0 +3.6749089476e-03 -9.4319108580e-03 +9.7076888361e-02 9.7604555590e-02 5.1099893000e-04 0.0000e+00 1.0000e+00
<vert_displacement>
92.776998768812163
</vert_displacement>
</event>
<event>
 4   1200 +8.5212000e+10 2.05795500e-02 7.81665300e-03            nan
       50 -1    0    0    0    0 -4.4697106306e-02 +5.2499065039e-03 +1.3842924356e+01 1.3842998413e+01 4.9935713700e-03 0.0000e+00 0.0000e+00
       11 -1    0    0    0    0 +1.7923775725e-18 -2.1052402388e-19 -5.5510857872e-16 5.1100000000e-04 5.1099893000e-04 0.0000e+00 1.0000e+00
       50  1    1    2    0    0 -4.4403467393e-02 -1.4841728290e-02 +1.3441237627e+01 1.3441320093e+01 4.9935713700e-03 0.0000e+00 0.0000e+00
       11  1    1    2    0    0 -2.9363891260e-04 +2.0091634794e-02 +4.0168672883e-01 4.0218932016e-01 5.1099893000e-04 0.0000e+00 1.0000e+00
<vert_displacement>
499.02822048043447
</vert_displacement>
</event>
<event>
 4   1200 +8.5212000e+10 1.88701300e-02 7.81665300e-03            nan
       50 -1    0    0    0    0 +1.1560105919e-01 -4.2909361418e-02 +3.4065655980e+01 3.4065879515e+01 4.9935713700e-03 0.0000e+00 0.0000e+00
       11 -1    0    0    0    0 -1.2856569498e-17 +4.7721637761e-18 -3.7886112518e-15 5.1100000000e-04 5.1099893000e-04 0.0000e+00 1.0000e+00
       50  1    1    2    0    0 +1.3215745929e-01 -3.8134533370e-02 +3.3738436818e+01 3.3738717576e+01 4.9935713700e-03 0.0000e+00 0.0000e+00
       11  1    1    2    0    0 -1.6556400091e-02 -4.7748280477e-03 +3.2721916237e-01 3.2767293863e-01 5.1099893000e-04 0.0000e+00 1.0000e+00
<vert_displacement>
150.99606489122638
</vert_displacement>
</event>
<event>
 4   1200 +8.5212000e+10 5.57885000e-03 7.81665300e-03            nan
       50 -1    0    0    0    0 +6.4085456611e-03 -8.8959523237e-03 +5.3799147697e+00 5.3799282591e+00 4.9935713700e-03 0.0000e+00 0.0000e+00
       11 -1    0    0    0    0 -5.7859073215e-20 +8.0316437462e-20 -4.8572156463e-17 5.1100000000e-04 5.1099893000e-04 0.0000e+00 1.0000e+00
       50  1    1    2    0    0 +6.9541832969e-03 -1.1311241151e-02 +5.3738480607e+00 5.3738667847e+00 4.9935713700e-03 0.0000e+00 0.0000e+00
       11  1    1    2    0    0 -5.4563763576e-04 +2.4152888275e-03 +6.0667090668e-03 6.5724743710e-03 5.1099893000e-04 0.0000e+00 1.0000e+00
<vert_displacement>
170.12427312168791
</vert_displacement>
</event>
<event>
 4   1200 +8.5212000e+10 1.14691500e-02 7.81665300e-03            nan
       50 -1    0    0    0    0 -6.8809697581e-04 +2.4022758009e-02 +1.1897382989e+01 1.1897408310e+01 4.9935713700e-03 0.0000e+00 0.0000e+00
       11 -1    0    0    0    0 -8.1467353056e-20 +2.8441783308e-18 +1.4085925887e-15 5.1100000000e-04 5.1099893000e-04 0.0000e+00 1.0000e+00
       50  1    1    2    0    0 +9.5236990047e-03 +2.5375210940e-02 +1.1792132417e+01 1.1792164622e+01 4.9935713700e-03 0.0000e+00 0.0000e+00
       11  1    1    2    0    0 -1.0211795981e-02 -1.3524529312e-03 +1.0525057227e-01 1.0575468779e-01 5.1099893000e-04 0.0000e+00 1.0000e+00
<vert_displacement>
36.106362096418778
</vert_displacement>
</event>
<event>
 4   1200 +8.5212000e+10 7.22383900e-03 7.81665300e-03            nan
       50 -1    0    0    0    0 +2.4126939020e-02 -1.9835571418e-02 +8.1604211309e+00 8.1604824324e+00 4.9935713700e-03 0.0000e+00 0.0000e+00
       11 -1    0    0    0    0 +3.3029545439e-18 -2.7154704827e-18 +1.1171537356e-15 5.1100000000e-04 5.1099893000e-04 0.0000e+00 1.0000e+00
       50  1    1    2    0    0 +2.2446906471e-02 -2.4738950670e-02 +8.1336628161e+00 8.1337329450e+00 4.9935713700e-03 0.0000e+00 0.0000e+00
       11  1    1    2    0    0 +1.6800325486e-03 +4.9033792517e-03 +2.6758314855e-02 2.7260487363e-02 5.1099893000e-04 0.0000e+00 1.0000e+00
<vert_displacement>
470.71408305503439
</vert_displacement>
</event>
<event>
 4   1200 +8.5212000e+10 2.65621700e-02 7.81665300e-03            nan
       50 -1    0    0    0    0 -3.5469619555e-02 +1.0001106575e-02 +1.0784831432e+01 1.0784895552e+01 4.9935713700e-03 0.0000e+00 0.0000e+00
       11 -1    0    0    0    0 -2.8069585011e-18 +7.9145735066e-19 +8.5347896740e-16 5.1100000000e-04 5.1099893000e-04 0.0000e+00 1.0000e+00
       50  1    1    2    0    0 -3.4233162773e-02 +3.5404620328e-02 +1.0071535524e+01 1.0071657169e+01 4.9935713700e-03 0.0000e+00 0.0000e+00
       11  1    1    2    0    0 -1.2364567827e-03 -2.5403513752e-02 +7.1329590871e-01 7.1374938307e-01 5.1099893000e-04 0.0000e+00 1.0000e+00
<vert_displacement>
15.813891899079914
</vert_displacement>
</event>
<event>
 4   1200 +8.5212000e+10 5.13504300e-03 7.81665300e-03            nan
       50 -1    0    0    0    0 -2.8597168585e-02 +5.1164690234e-02 +2.0567367002e+01 2.0567451129e+01 4.9935713700e-03 0.0000e+00 0.0000e+00
       11 -1    0    0    0    0 -3.2802862127e-19 +5.8689316550e-19 +2.3592143469e-16 5.1100000000e-04 5.1099893000e-04 0.0000e+00 1.0000e+00
       50  1    1    2    0    0 -2.9205460664e-02 +5.2191011269e-02 +2.0565961399e+01 2.0566048966e+01 4.9935713700e-03 0.0000e+00 0.0000e+00
       11  1    1    2    0    0 +6.0829207851e-04 -1.0263210349e-03 +1.4056022230e-03 1.9131627310e-03 5.1099893000e-04 0.0000e+00 1.0000e+00
<vert_displacement>
237.90789893596624
</vert_displacement>
</event>
<event>
 4   1200 +8.5212000e+10 1.56989900e-02 7.81665300e-03            nan
       50 -1    0    0    0    0 -5.4879281445e-03 +1.2953198135e-02 +1.2580841841e+01 1.2580850697e+01 4.9935713700e-03 0.0000e+00 0.0000e+00
       11 -1    0    0    0    0 -4.8126670087e-19 +1.1359374191e-18 +1.1032834410e-15 5.1100000000e-04 5.1099893000e-04 0.0000e+00 1.0000e+00
       50  1    1    2    0    0 +8.8724589441e-03 +8.4767092222e-03 +1.2360212846e+01 1.2360219946e+01 4.9935713700e-03 0.0000e+00 0.0000e+00
       11  1    1    2    0    0 -1.4360387089e-02 +4.4764889133e-03 +2.2062899530e-01 2.2114175173e-01 5.1099893000e-04 0.0000e+00 1.0000e+00
<vert_displacement>
453.43242620934194
</vert_displacement>
</event>
<event>
 4   1200 +8.5212000e+10 9.84747500e-03 7.81665300e-03            nan
       50 -1    0    0    0    0 +3.9950136667e-02 +1.0296538229e-03 +1.1807847855e+01 1.1807916538e+01 4.9935713700e-03 0.0000e+00 0.0000e+00
       11 -1    0    0    0    0 -7.8177092430e-18 -2.0148952869e-19 -2.3106384362e-15 5.1100000000e-04 5.1099893000e-04 0.0000e+00 1.0000e+00
       50  1    1    2    0    0 +4.3773664319e-02 -6.4280483478e-03 +1.1736919017e+01 1.1737003467e+01 4.9935713700e-03 0.0000e+00 0.0000e+00
       11  1    1    2    0    0 -3.8235276521e-03 +7.4577021707e-03 +7.0928838199e-02 7.1424070827e-02 5.1099893000e-04 0.0000e+00 1.0000e+00
<vert_displacement>
227.16442214236534
</vert_displacement>
</event>
<event>
 4   1200 +8.5212000e+10 8.87204000e-03 7.81665300e-03            nan
       50 -1    0    0    0    0 +1.0983888635e-02 -1.9323516090e-02 +1.3136460390e+01 1.3136480144e+01 4.9935713700e-03 0.0000e+00 0.0000e+00
       11 -1    0    0    0    0 -2.4367819899e-19 +4.2869331215e-19 -2.9143312679e-16 5.1100000000e-04 5.1099893000e-04 0.0000e+00 1.0000e+00
       50  1    1    2    0    0 +1.7079331418e-02 -2.3256069092e-02 +1.3083614795e+01 1.3083647564e+01 4.9935713700e-03 0.0000e+00 0.0000e+00
       11  1    1    2    0    0 -6.0954427834e-03 +3.9325530016e-03 +5.2845595591e-02 5.3343579643e-02 5.1099893000e-04 0.0000e+00 1.0000e+00
<vert_displacement>
128.81197592788928
</vert_displacement>
</event>
<event>
 4   1200 +8.5212000e+10 8.40914200e-03 7.81665300e-03            nan
       50 -1    0    0    0    0 -1.1981110945e-03 +5.4577461452e-03 +2.2591741978e+00 2.2591866266e+00 4.9935713700e-03 0.0000e+00 0.0000e+00
       11 -1    0    0    0    0 -3.3119120759e-20 +1.5086727306e-19 +6.2449854120e-17 5.1100000000e-04 5.1099893000e-04 0.0000e+00 1.0000e+00
       50  1    1    2    0    0 +3.7012573276e-03 +1.0038850837e-02 +2.2134269749e+00 2.2134584674e+00 4.9935713700e-03 0.0000e+00 0.0000e+00
       11  1    1    2    0    0 -4.8993684221e-03 -4.5811046919e-03 +4.5747222833e-02 4.6239159248e-02 5.1099893000e-04 0.0000e+00 1.0000e+00
<vert_displacement>
126.52325586734882
</vert_displacement>
</event>
<event>
 4   1200 +8.5212000e+10 9.29486100e-03 7.81665300e-03            nan
       50 -1    0    0    0    0 -1.4406266646e-02 +2.5877936464e-02 +1.0110169617e+01 1.0110214233e+01 4.9935713700e-03 0.0000e+00 0.0000e+00
       11 -1    0    0    0    0 +5.9324302553e-20 -1.0656407867e-19 -4.1633184777e-17 5.1100000000e-04 5.1099893000e-04 0.0000e+00 1.0000e+00
       50  1    1    2    0    0 -2.1899664777e-02 +2.3721029364e-02 +1.0049662531e+01 1.0049715628e+01 4.9935713700e-03 0.0000e+00 0.0000e+00
       11  1    1    2    0    0 +7.4933981310e-03 +2.1569070998e-03 +6.0507086469e-02 6.1009604955e-02 5.1099893000e-04 0.0000e+00 1.0000e+00
<vert_displacement>
88.922047704956441
</vert_displacement>
</event>
<event>
 4   1200 +8.5212000e+10 1.23728400e-02 7.81665300e-03            nan
       50 -1    0    0    0    0 -6.2599902473e-03 -1.7076352303e-02 +7.9778026195e+00 7.9778249142e+00 4.9935713700e-03 0.0000e+00 0.0000e+00
       11 -1    0    0    0    0 +2.8312800687e-19 +7.7233244799e-19 -3.6082154534e-16 5.1100000000e-04 5.1099893000e-04 0.0000e+00 1.0000e+00
       50  1    1    2    0    0 -3.6498721240e-03 -5.7649943608e-03 +7.8503857607e+00 7.8503903141e+00 4.9935713700e-03 0.0000e+00 0.0000e+00
       11  1    1    2    0    0 -2.6101181233e-03 -1.1311357942e-02 +1.2741685883e-01 1.2794560003e-01 5.1099893000e-04 0.0000e+00 1.0000e+00
<vert_displacement>
64.269270125244844
</vert_displacement>
</event>
<event>
 4   1200 +8.5212000e+10 1.68323500e-02 7.81665300e-03            nan
       50 -1    0    0    0    0 +1.7257553411e-02 +1.5890824519e-02 +1.7750875760e+01 1.7750891964e+01 4.9935713700e-03 0.0000e+00 0.0000e+00
       11 -1    0    0    0    0 +2.3476240701e-18 +2.1617016762e-18 +2.4147329698e-15 5.1100000000e-04 5.1099893000e-04 0.0000e+00 1.0000e+00
       50  1    1    2    0    0 +2.0840173014e-02 +5.0015758203e-05 +1.7494335915e+01 1.7494349040e+01 4.9935713700e-03 0.0000e+00 0.0000e+00
       11  1    1    2    0    0 -3.5826196024e-03 +1.5840808761e-02 +2.5653984522e-01 2.5705392371e-01 5.1099893000e-04 0.0000e+00 1.0000e+00
<vert_displacement>
60.985037298325771
</vert_displacement>
</event>
<event>
 4   1200 +8.5212000e+10 1.71656600e-02 7.81665300e-03            nan
       50 -1    0    0    0    0 +4.8071131389e-03 -1.4150233298e-03 +2.4629343470e+00 2.4629445069e+00 4.9935713700e-03 0.0000e+00 0.0000e+00
       11 -1    0    0    0    0 -6.7715932128e-21 +1.9932882999e-21 -3.4694397710e-18 5.1100000000e-04 5.1099893000e-04 0.0000e+00 1.0000e+00
       50  1    1    2    0    0 -7.2846167389e-03 -1.2963062058e-02 +2.1617921282e+00 2.1618490344e+00 4.9935713700e-03 0.0000e+00 0.0000e+00
       11  1    1    2    0    0 +1.2091729878e-02 +1.1548038728e-02 +3.0114221885e-01 3.0160647245e-01 5.1099893000e-04 0.0000e+00 1.0000e+00
<vert_displacement>
82.864247408452357
</vert_displacement>
</event>
<event>
 4   1200 +8.5212000e+10 5.27841100e-03 7.81665300e-03            nan
       50 -1    0    0    0    0 +7.5645653955e-03 +1.5673334776e-02 +6.2043901800e+00 6.2044165976e+00 4.9935713700e-03 0.0000e+00 0.0000e+00
       11 -1    0    0    0    0 -4.4838315462e-19 -9.2902353575e-19 -3.6775993013e-16 5.1100000000e-04 5.1099893000e-04 0.0000e+00 1.0000e+00
       50  1    1    2    0    0 +6.3203053376e-03 +1.6843536070e-02 +6.2015242845e+00 6.2015523894e+00 4.9935713700e-03 0.0000e+00 0.0000e+00
       11  1    1    2    0    0 +1.2442600579e-03 -1.1702012940e-03 +2.8658954075e-03 3.3752082237e-03 5.1099893000e-04 0.0000e+00 1.0000e+00
<vert_displacement>
367.35008631188265
</vert_displacement>
</event>
<event>
 4   1200 +8.5212000e+10 6.35737200e-03 7.81665300e-03            nan
       50 -1    0    0    0    0 +1.0726073844e-02 -3.0564452558e-02 +1.2169031257e+01 1.2169075392e+01 4.9935713700e-03 0.0000e+00 0.0000e+00
       11 -1    0    0    0    0 +9.2352877550e-19 -2.6316387390e-18 +1.0477692676e-15 5.1100000000e-04 5.1099893000e-04 0.0000e+00 1.0000e+00
       50  1    1    2    0    0 +1.2004966309e-02 -3.4242590304e-02 +1.2153854076e+01 1.2153909269e+01 4.9935713700e-03 0.0000e+00 0.0000e+00
       11  1    1    2    0    0 -1.2788924653e-03 +3.6781377457e-03 +1.5177180711e-02 1.5677123380e-02 5.1099893000e-04 0.0000e+00 1.0000e+00
<vert_displacement>
106.29417405600604
</vert_displacement>
</event>
<event>
 4   1200 +8.5212000e+10 2.13492100e-02 7.81665300e-03            nan
       50 -1    0    0    0    0 +3.3609424257e-02 -1.1354077484e-02 +1.0697534409e+01 1.0697594396e+01 4.9935713700e-03 0.0000e+00 0.0000e+00
       11 -1    0    0    0    0 -1.8312368793e-18 +6.1863616764e-19 -5.8286388295e-16 5.1100000000e-04 5.1099893000e-04 0.0000e+00 1.0000e+00
       50  1    1    2    0    0 +5.2826936114e-02 -1.3442791322e-02 +1.0257756049e+01 1.0257902100e+01 4.9935713700e-03 0.0000e+00 0.0000e+00
       11  1    1    2    0    0 -1.9217511857e-02 +2.0887138383e-03 +4.3977835910e-01 4.4020329592e-01 5.1099893000e-04 0.0000e+00 1.0000e+00
<vert_displacement>
418.07291316981082
</vert_displacement>
</event>
<event>
 4   1200 +8.5212000e+10 1.69608200e-02 7.81665300e-03            nan
       50 -1    0    0    0    0 -7.7819823890e-03 -4.3662501310e-03 +2.8705214124e+00 2.8705396249e+00 4.9935713700e-03 0.0000e+00 0.0000e+00
       11 -1    0    0    0    0 -7.9007240262e-19 -4.4328727039e-19 +2.9143213589e-16 5.1100000000e-04 5.1099893000e-04 0.0000e+00 1.0000e+00
       50  1    1    2    0    0 -9.8372001548e-04 +1.1116785242e-02 +2.5847387640e+00 2.5847676810e+00 4.9935713700e-03 0.0000e+00 0.0000e+00
       11  1    1    2    0    0 -6.7982623735e-03 -1.5483035373e-02 +2.8578264837e-01 2.8628294393e-01 5.1099893000e-04 0.0000e+00 1.0000e+00
<vert_displacement>
415.40123059538246
</vert_displacement>
</event>
<event>
 4   1200 +8.5212000e+10 1.09891600e-02 7.81665300e-03            nan
       50 -1    0    0    0    0 +9.3342514253e-03 -5.2715168990e-03 +3.2958802803e+00 3.2959014966e+00 4.9935713700e-03 0.0000e+00 0.0000e+00
       11 -1    0    0    0    0 +4.9128785189e-19 -2.7745473048e-19 +1.7347143003e-16 5.1100000000e-04 5.1099893000e-04 0.0000e+00 1.0000e+00
       50  1    1    2    0    0 +2.7457995421e-03 -1.2596887036e-02 +3.1992551980e+00 3.1992850730e+00 4.9935713700e-03 0.0000e+00 0.0000e+00
       11  1    1    2    0    0 +6.5884518832e-03 +7.3253701369e-03 +9.6625082340e-02 9.7127423537e-02 5.1099893000e-04 0.0000e+00 1.0000e+00
<vert_displacement>
250.71676069888861
</vert_displacement>
</event>
<event>
 4   1200 +8.5212000e+10 1.62384200e-02 7.81665300e-03            nan
       50 -1    0    0    0    0 +1.1687142976e-02 +6.7991053224e-03 +6.5114080864e+00 6.5114240394e+00 4.9935713700e-03 0.0000e+00 0.0000e+00
       11 -1    0    0    0    0 +5.2308473189e-19 +3.0430946143e-19 +2.9143291565e-16 5.1100000000e-04 5.1099893000e-04 0.0000e+00 1.0000e+00
       50  1    1    2    0    0 -5.3055898837e-04 -3.4509483429e-03 +6.2687302234e+00 6.2687331846e+00 4.9935713700e-03 0.0000e+00 0.0000e+00
       11  1    1    2    0    0 +1.2217701964e-02 +1.0250053665e-02 +2.4267786298e-01 2.4320185473e-01 5.1099893000e-04 0.0000e+00 1.0000e+00
<vert_displacement>
24.879594886875989
</vert_displacement>
</event>
<event>
 4   1200 +8.5212000e+10 6.72142900e-03 7.81665300e-03            nan
       50 -1    0    0    0    0 -4.2820924400e-02 -2.6157712246e-02 +1.2727237146e+01 1.2727337041e+01 4.9935713700e-03 0.0000e+00 0.0000e+00
       11 -1    0    0    0    0 -5.8131043773e-18 -3.5510095517e-18 +1.7277711539e-15 5.1100000000e-04 5.1099893000e-04 0.0000e+00 1.0000e+00
       50  1    1    2    0    0 -4.5155260620e-02 -2.2312118772e-02 +1.2707399143e+01 1.2707499941e+01 4.9935713700e-03 0.0000e+00 0.0000e+00
       11  1    1    2    0    0 +2.3343362193e-03 -3.8455934736e-03 +1.9838002163e-02 2.0348099776e-02 5.1099893000e-04 0.0000e+00 1.0000e+00
<vert_displacement>
278.64198877902226
</vert_displacement>
</event>
<event>
 4   1200 +8.5212000e+10 8.93424100e-03 7.81665300e-03            nan
       50 -1    0    0    0    0 +1.2484337463e-04 -1.6117841363e-03 +4.4918726826e+00 4.4918757492e+00 4.9935713700e-03 0.0000e+00 0.0000e+00
       11 -1    0    0    0    0 -2.5070998605e-21 +3.2367787200e-20 -9.0205614909e-17 5.1100000000e-04 5.1099893000e-04 0.0000e+00 1.0000e+00
       50  1    1    2    0    0 +7.5316477224e-03 -1.5502723698e-03 +4.4375012607e+00 4.4375107327e+00 4.9935713700e-03 0.0000e+00 0.0000e+00
       11  1    1    2    0    0 -7.4068043478e-03 -6.1511766512e-05 +5.4371421935e-02 5.4876016414e-02 5.1099893000e-04 0.0000e+00 1.0000e+00
<vert_displacement>
366.14584313826754
</vert_displacement>
</event>
<event>
 4   1200 +8.5212000e+10 1.24368800e-02 7.81665300e-03            nan
       50 -1    0    0    0    0 -7.8418521978e-03 -1.1968597888e-03 +7.5623254178e+00 7.5623312270e+00 4.9935713700e-03 0.0000e+00 0.0000e+00
       11 -1    0    0    0    0 -1.2951671006e-19 -1.9767439929e-20 +1.2490002155e-16 5.1100000000e-04 5.1099893000e-04 0.0000e+00 1.0000e+00
       50  1    1    2    0    0 +1.7670955899e-03 +5.1453326488e-03 +7.4331668837e+00 7.4331705519e+00 4.9935713700e-03 0.0000e+00 0.0000e+00
       11  1    1    2    0    0 -9.6089477877e-03 -6.3421924376e-03 +1.2915853409e-01 1.2967167513e-01 5.1099893000e-04 0.0000e+00 1.0000e+00
<vert_displacement>
291.31672912514699
</vert_displacement>
</event>
<event>
 4   1200 +8.5212000e+10 1.89063300e-02 7.81665300e-03            nan
       50 -1    0    0    0    0 -2.0117927707e-02 -1.0143240080e-02 +7.4292035197e+00 7.4292393614e+00 4.9935713700e-03 0.0000e+00 0.0000e+00
       11 -1    0    0    0    0 -4.1338233898e-19 -2.0842287388e-19 +1.5265496390e-16 5.1100000000e-04 5.1099893000e-04 0.0000e+00 1.0000e+00
       50  1    1    2    0    0 -1.2216090082e-03 -6.5963618484e-03 +7.0881690951e+00 7.0881740287e+00 4.9935713700e-03 0.0000e+00 0.0000e+00
       11  1    1    2    0    0 -1.8896318699e-02 -3.5468782319e-03 +3.4103442456e-01 3.4157633270e-01 5.1099893000e-04 0.0000e+00 1.0000e+00
<vert_displacement>
156.73322034031537
</vert_displacement>
</event>
<event>
 4   1200 +8.5212000e+10 1.55049600e-02 7.81665300e-03            nan
       50 -1    0    0    0    0 +7.4391138650e-03 +5.7307617987e-03 +3.5122453186e+00 3.5122614219e+00 4.9935713700e-03 0.0000e+00 0.0000e+00
       11 -1    0    0    0    0 +6.3196570990e-19 +4.8683821946e-19 +2.9837137143e-16 5.1100000000e-04 5.1099893000e-04 0.0000e+00 1.0000e+00
       50  1    1    2    0    0 -7.6936101632e-03 +4.5320861080e-03 +3.2868497457e+00 3.2868656678e+00 4.9935713700e-03 0.0000e+00 0.0000e+00
       11  1    1    2    0    0 +1.5132724028e-02 +1.1986756907e-03 +2.2539557288e-01 2.2590675412e-01 5.1099893000e-04 0.0000e+00 1.0000e+00
<vert_displacement>
476.79180448264043
</vert_displacement>
</event>
<event>
 4   1200 +8.5212000e+10 2.07153200e-02 7.81665300e-03            nan
       50 -1    0    0    0    0 -1.1270176342e-02 +1.9134140382e-03 +5.3541215318e+00 5.3541360640e+00 4.9935713700e-03 0.0000e+00 0.0000e+00
       11 -1    0    0    0    0 +2.7751428595e-18 -4.7115476671e-19 -1.3183868368e-15 5.1100000000e-04 5.1099893000e-04 0.0000e+00 1.0000e+00
       50  1    1    2    0    0 -1.2287863431e-02 -1.8252584144e-02 +4.9238681972e+00 4.9239198925e+00 4.9935713700e-03 0.0000e+00 0.0000e+00
       11  1    1    2    0    0 +1.0176870887e-03 +2.0165998182e-02 +4.3025333466e-01 4.3072717151e-01 5.1099893000e-04 0.0000e+00 1.0000e+00
<vert_displacement>
336.34783994211659
</vert_displacement>
</event>
<event>
 4   1200 +8.5212000e+10 5.21160700e-02 7.81665300e-03            nan
       50 -1    0    0    0    0 -9.0124771237e-03 -6.3061719642e-03 +1.2589181267e+01 1.2589187062e+01 4.9935713700e-03 0.0000e+00 0.0000e+00
       11 -1    0    0    0    0 -5.3648863391e-19 -3.7538953340e-19 +7.4940025557e-16 5.1100000000e-04 5.1099893000e-04 0.0000e+00 1.0000e+00
       50  1    1    2    0    0 +4.3308688744e-02 +1.0668381203e-02 +8.8330217746e+00 8.8331358001e+00 4.9935713700e-03 0.0000e+00 0.0000e+00
       11  1    1    2    0    0 -5.2321165868e-02 -1.6974553167e-02 +3.7561594921e+00 3.7565622624e+00 5.1099893000e-04 0.0000e+00 1.0000e+00
<vert_displacement>
408.52574206654907
</vert_displacement>
</event>
<event>
 4   1200 +8.5212000e+10 2.41756700e-02 7.81665300e-03            nan
       50 -1    0    0    0    0 -6.2658711766e-02 -5.5775645457e-02 +2.7785923692e+01 2.7786050770e+01 4.9935713700e-03 0.0000e+00 0.0000e+00
       11 -1    0    0    0    0 +4.3187093116e-18 +3.8442986236e-18 -1.9151259896e-15 5.1100000000e-04 5.1099893000e-04 0.0000e+00 1.0000e+00
       50  1    1    2    0    0 -8.5047331984e-02 -5.4136101615e-02 +2.7227136108e+01 2.7227323213e+01 4.9935713700e-03 0.0000e+00 0.0000e+00
       11  1    1    2    0    0 +2.2388620219e-02 -1.6395438420e-03 +5.5878758381e-01 5.5923855675e-01 5.1099893000e-04 0.0000e+00 1.0000e+00
<vert_displacement>
57.665610852201205
</vert_displacement>
</event>
<event>
 4   1200 +8.5212000e+10 2.59532000e-02 7.81665300e-03            nan
       50 -1    0    0    0    0 +3.0831706607e-02 -3.6266320013e-02 +1.8580234590e+01 1.8580296236e+01 4.9935713700e-03 0.0000e+00 0.0000e+00
       11 -1    0    0    0    0 +1.2435376795e-18 -1.4627323750e-18 +7.4939808234e-16 5.1100000000e-04 5.1099893000e-04 0.0000e+00 1.0000e+00
       50  1    1    2    0    0 +2.6071437537e-02 -6.0184611709e-02 +1.7922171694e+01 1.7922292406e+01 4.9935713700e-03 0.0000e+00 0.0000e+00
       11  1    1    2    0    0 +4.7602690693e-03 +2.3918291696e-02 +6.5806289593e-01 6.5851482972e-01 5.1099893000e-04 0.0000e+00 1.0000e+00
<vert_displacement>
125.87895575469985
</vert_displacement>
</event>
<event>
 4   1200 +8.5212000e+10 2.24737000e-02 7.81665300e-03            nan
       50 -1    0    0    0    0 +3.4392762875e-02 +1.8917881742e-03 +1.0787966483e+01 1.0788022628e+01 4.9935713700e-03 0.0000e+00 0.0000e+00
       11 -1    0    0    0    0 +2.3448840667e-18 +1.2898131980e-19 +7.3551900469e-16 5.1100000000e-04 5.1099893000e-04 0.0000e+00 1.0000e+00
       50  1    1    2    0    0 +3.9130964698e-02 +2.2789788521e-02 +1.0295607851e+01 1.0295708648e+01 4.9935713700e-03 0.0000e+00 0.0000e+00
       11  1    1    2    0    0 -4.7382018230e-03 -2.0898000347e-02 +4.9235863149e-01 4.9282497918e-01 5.1099893000e-04 0.0000e+00 1.0000e+00
<vert_displacement>
176.78072260588843
</vert_displacement>
</event>
<event>
 4   1200 +8.5212000e+10 1.35130200e-02 7.81665300e-03            nan
       50 -1    0    0    0    0 -2.7504367210e-02 -5.1066175658e-04 +8.4574250140e+00 8.4574712269e+00 4.9935713700e-03 0.0000e+00 0.0000e+00
       11 -1    0    0    0    0 +1.4216477466e-18 +2.6395122271e-20 -4.3714800349e-16 5.1100000000e-04 5.1099893000e-04 0.0000e+00 1.0000e+00
       50  1    1    2    0    0 -2.2327350674e-02 -1.2158634605e-02 +8.3002283333e+00 8.3002687706e+00 4.9935713700e-03 0.0000e+00 0.0000e+00
       11  1    1    2    0    0 -5.1770165359e-03 +1.1647972848e-02 +1.5719668068e-01 1.5771345633e-01 5.1099893000e-04 0.0000e+00 1.0000e+00
<vert_displacement>
77.153546946941375
</vert_displacement>
</event>
<event>
 4   1200 +8.5212000e+10 2.46215000e-02 7.81665300e-03            nan
       50 -1    0    0    0    0 -4.5178940332e-02 -1.9832325355e-02 +3.0318424702e+01 3.0318465261e+01 4.9935713700e-03 0.0000e+00 0.0000e+00
       11 -1    0    0    0    0 +9.5127680504e-19 +4.1758463040e-19 -6.3837739381e-16 5.1100000000e-04 5.1099893000e-04 0.0000e+00 1.0000e+00
       50  1    1    2    0    0 -6.2740649615e-02 -3.9040068889e-03 +2.9738529473e+01 2.9738596331e+01 4.9935713700e-03 0.0000e+00 0.0000e+00
       11  1    1    2    0    0 +1.7561709283e-02 -1.5928318466e-02 +5.7989522940e-01 5.8037993002e-01 5.1099893000e-04 0.0000e+00 1.0000e+00
<vert_displacement>
152.55148048272912
</vert_displacement>
</event>
<event>
 4   1200 +8.5212000e+10 9.47643000e-03 7.81665300e-03            nan
       50 -1    0    0    0    0 +3.3590548228e-02 -2.2515716085e-02 +1.0515748954e+01 1.0515827894e+01 4.9935713700e-03 0.0000e+00 0.0000e+00
       11 -1    0    0    0    0 +4.8762571405e-19 -3.2685510395e-19 +1.5265453715e-16 5.1100000000e-04 5.1099893000e-04 0.0000e+00 1.0000e+00
       50  1    1    2    0    0 +3.3834154144e-02 -1.4337438387e-02 +1.0451902788e+01 1.0451968577e+01 4.9935713700e-03 0.0000e+00 0.0000e+00
       11  1    1    2    0    0 -2.4360591529e-04 -8.1782776974e-03 +6.3846165965e-02 6.4370316127e-02 5.1099893000e-04 0.0000e+00 1.0000e+00
<vert_displacement>
259.86404634617855
</vert_displacement>
</event>
<event>
 4   1200 +8.5212000e+10 1.91170000e-02 7.81665300e-03            nan
       50 -1    0    0    0    0 -1.1117390991e-02 -1.1825981310e-02 +5.0522670110e+00 5.0522955511e+00 4.9935713700e-03 0.0000e+00 0.0000e+00
       11 -1    0    0    0    0 +1.0688152234e-19 +1.1369384116e-19 -4.8572006670e-17 5.1100000000e-04 5.1099893000e-04 0.0000e+00 1.0000e+00
       50  1    1    2    0    0 +6.7806879849e-04 -2.5798034186e-02 +4.6934231946e+00 4.6934968006e+00 4.9935713700e-03 0.0000e+00 0.0000e+00
       11  1    1    2    0    0 -1.1795459790e-02 +1.3972052876e-02 +3.5884381642e-01 3.5930975055e-01 5.1099893000e-04 0.0000e+00 1.0000e+00
<vert_displacement>
173.58470134662917
</vert_displacement>
</event>
<event>
 4   1200 +8.5212000e+10 8.93740700e-03 7.81665300e-03            nan
       50 -1    0    0    0    0 -2.2760221278e-02 -1.8370698818e-02 +7.5804513921e+00 7.5805094653e+00 4.9935713700e-03 0.0000e+00 0.0000e+00
       11 -1    0    0    0    0 -8.9585326866e-19 -7.2307955104e-19 +2.9837021681e-16 5.1100000000e-04 5.1099893000e-04 0.0000e+00 1.0000e+00
       50  1    1    2    0    0 -2.8372704316e-02 -1.3592961456e-02 +7.5262952373e+00 7.5263626483e+00 4.9935713700e-03 0.0000e+00 0.0000e+00
       11  1    1    2    0    0 +5.6124830380e-03 -4.7777373621e-03 +5.4156154735e-02 5.4657816968e-02 5.1099893000e-04 0.0000e+00 1.0000e+00
<vert_displacement>
309.16339819115808
</vert_displacement>
</event>
<event>
 4   1200 +8.5212000e+10 1.48881800e-02 7.81665300e-03            nan
       50 -1    0    0    0    0 +6.7761937312e-03 +4.6136601064e-02 +2.0556999561e+01 2.0557053057e+01 4.9935713700e-03 0.0000e+00 0.0000e+00
       11 -1    0    0    0    0 -2.8819454907e-19 -1.9622102712e-18 -8.7429838248e-16 5.1100000000e-04 5.1099893000e-04 0.0000e+00 -1.0000e+00
       50  1    1    2    0    0 -7.3114146095e-03 +4.5949584193e-02 +2.0362672766e+01 2.0362726534e+01 4.9935713700e-03 0.0000e+00 0.0000e+00
       11  1    1    2    0    0 +1.4087608341e-02 +1.8701687138e-04 +1.9432679530e-01 1.9483752250e-01 5.1099893000e-04 0.0000e+00 -1.0000e+00
<vert_displacement>
438.96609233856213
</vert_displacement>
</event>
<event>
 4   1200 +8.5212000e+10 1.50835700e-02 7.81665300e-03            nan
       50 -1    0    0    0    0 +2.8544811737e-02 -1.8340161501e-02 +1.0865737583e+01 1.0865791702e+01 4.9935713700e-03 0.0000e+00 0.0000e+00
       11 -1    0    0    0    0 +1.8775578429e-18 -1.2063388045e-18 +7.1470258781e-16 5.1100000000e-04 5.1099893000e-04 0.0000e+00 1.0000e+00
       50  1    1    2    0    0 +3.9799501797e-02 -2.5979349228e-02 +1.0663704117e+01 1.0663811203e+01 4.9935713700e-03 0.0000e+00 0.0000e+00
       11  1    1    2    0    0 -1.1254690060e-02 +7.6391877271e-03 +2.0203346531e-01 2.0249149973e-01 5.1099893000e-04 0.0000e+00 1.0000e+00
<vert_displacement>
428.91061789647858
</vert_displacement>
</event>
<event>
 4   1200 +8.5212000e+10 1.35823500e-02 7.81665300e-03            nan
       50 -1    0    0    0    0 +1.3854348653e-02 -1.1758290291e-02 +5.4956952283e+00 5.4957275386e+00 4.9935713700e-03 0.0000e+00 0.0000e+00
       11 -1    0    0    0    0 -1.0145637454e-18 +8.6106790990e-19 -4.0245364646e-16 5.1100000000e-04 5.1099893000e-04 0.0000e+00 1.0000e+00
       50  1    1    2    0    0 +2.0701881376e-02 -2.1755143702e-02 +5.3348023806e+00 5.3348892425e+00 4.9935713700e-03 0.0000e+00 0.0000e+00
       11  1    1    2    0    0 -6.8475327232e-03 +9.9968534110e-03 +1.6089284769e-01 1.6134929607e-01 5.1099893000e-04 0.0000e+00 1.0000e+00
<vert_displacement>
0.52804264643072296
</vert_displacement>
</event>
<event>
 4   1200 +8.5212000e+10 1.53544700e-02 7.81665300e-03            nan
       50 -1    0    0    0    0 -2.9213276005e-03 -1.0434596956e-02 +5.6350000881e+00 5.6350127190e+00 4.9935713700e-03 0.0000e+00 0.0000e+00
       11 -1    0    0    0    0 -1.0072419619e-19 -3.5977354639e-19 +1.9428867010e-16 5.1100000000e-04 5.1099893000e-04 0.0000e+00 1.0000e+00
       50  1    1    2    0    0 -2.8379390492e-03 +4.4823432925e-03 +5.4205223155e+00 5.4205272118e+00 4.9935713700e-03 0.0000e+00 0.0000e+00
       11  1    1    2    0    0 -8.3388551226e-05 -1.4916940249e-02 +2.1447777258e-01 2.1499650720e-01 5.1099893000e-04 0.0000e+00 1.0000e+00
<vert_displacement>
413.57620529039906
</vert_displacement>
</event>
<event>
 4   1200 +8.5212000e+10 6.14911200e-03 7.81665300e-03            nan
       50 -1    0    0    0    0 -4.9837039151e-04 -1.5785692240e-02 +1.7957273127e+01 1.7957280766e+01 4.9935713700e-03 0.0000e+00 0.0000e+00
       11 -1    0    0    0    0 -9.3977036486e-20 -2.9766868194e-18 +3.3861789154e-15 5.1100000000e-04 5.1099893000e-04 0.0000e+00 1.0000e+00
       50  1    1    2    0    0 +2.9557002398e-03 -1.6748073071e-02 +1.7944664501e+01 1.7944673254e+01 4.9935713700e-03 0.0000e+00 0.0000e+00
       11  1    1    2    0    0 -3.4540706313e-03 +9.6238083103e-04 +1.2608626211e-02 1.3118511944e-02 5.1099893000e-04 0.0000e+00 1.0000e+00
<vert_displacement>
53.645676261162443
</vert_displacement>
</event>
<event>
 4   1200 +8.5212000e+10 1.43121600e-02 7.81665300e-03            nan
       50 -1    0    0    0    0 +1.2678118369e-02 +4.3874762689e-03 +1.3730337757e+01 1.3730345219e+01 4.9935713700e-03 0.0000e+00 0.0000e+00
       11 -1    0    0    0    0 +8.9699837653e-20 +3.1042138714e-20 +9.7144468282e-17 5.1100000000e-04 5.1099893000e-04 0.0000e+00 1.0000e+00
       50  1    1    2    0    0 +1.8547498035e-02 -7.6483412586e-03 +1.3551979043e+01 1.3551994813e+01 4.9935713700e-03 0.0000e+00 0.0000e+00
       11  1    1    2    0    0 -5.8693796660e-03 +1.2035817528e-02 +1.7835871448e-01 1.7886140632e-01 5.1099893000e-04 0.0000e+00 1.0000e+00
<vert_displacement>
131.62203455702800
</vert_displacement>
</event>
<event>
 4   1200 +8.5212000e+10 1.25040000e-02 7.81665300e-03            nan
       50 -1    0    0    0    0 +2.6240716477e-03 +6.0450671028e-03 +4.6448245737e+00 4.6448319329e+00 4.9935713700e-03 0.0000e+00 0.0000e+00
       11 -1    0    0    0    0 +1.6072374358e-19 +3.7025887453e-19 +2.8449436372e-16 5.1100000000e-04 5.1099893000e-04 0.0000e+00 1.0000e+00
       50  1    1    2    0    0 -8.9061786072e-03 +6.3048864513e-03 +4.5124378043e+00 4.5124537610e+00 4.9935713700e-03 0.0000e+00 0.0000e+00
       11  1    1    2    0    0 +1.1530250255e-02 -2.5981934845e-04 +1.3238676943e-01 1.3288917193e-01 5.1099893000e-04 0.0000e+00 1.0000e+00
<vert_displacement>
200.20971481428506
</vert_displacement>
</event>
<event>
 4   1200 +8.5212000e+10 2.50973300e-02 7.81665300e-03            nan
       50 -1    0    0    0    0 +5.6565375620e-03 +1.8054137494e-02 +8.6944038260e+00 8.6944258450e+00 4.9935713700e-03 0.0000e+00 0.0000e+00
       11 -1    0    0    0    0 +4.6046885215e-19 +1.4696919939e-18 +7.0776550249e-16 5.1100000000e-04 5.1099893000e-04 0.0000e+00 1.0000e+00
       50  1    1    2    0    0 +4.0555826912e-03 +4.1294033718e-02 +8.0553003303e+00 8.0554087414e+00 4.9935713700e-03 0.0000e+00 0.0000e+00
       11  1    1    2    0    0 +1.6009548707e-03 -2.3239896224e-02 +6.3910349571e-01 6.3952810352e-01 5.1099893000e-04 0.0000e+00 1.0000e+00
<vert_displacement>
302.57952326576236
</vert_displacement>
</event>
<event>
 4   1200 +8.5212000e+10 3.51506400e-02 7.81665300e-03            nan
       50 -1    0    0    0    0 +7.5781682907e-03 -2.6192823318e-02 +1.7044075288e+01 1.7044097830e+01 4.9935713700e-03 0.0000e+00 0.0000e+00
       11 -1    0    0    0    0 -1.1230054830e-18 +3.8815031646e-18 -2.5257541489e-15 5.1100000000e-04 5.1099893000e-04 0.0000e+00 1.0000e+00
       50  1    1    2    0    0 -1.4734048773e-02 -5.1388285869e-02 +1.5763020396e+01 1.5763111837e+01 4.9935713700e-03 0.0000e+00 0.0000e+00
       11  1    1    2    0    0 +2.2312217064e-02 +2.5195462551e-02 +1.2810548922e+00 1.2814969934e+00 5.1099893000e-04 0.0000e+00 1.0000e+00
<vert_displacement>
172.22068890725475
</vert_displacement>
</event>
<event>
 4   1200 +8.5212000e+10 4.60293800e-02 7.81665300e-03            nan
       50 -1    0    0    0    0 -2.6370923350e-02 -1.6060529659e-02 +8.2381789457e+00 8.2382383216e+00 4.9935713700e-03 0.0000e+00 0.0000e+00
       11 -1    0    0    0    0 -2.1323208084e-18 -1.2986349067e-18 +6.6612913609e-16 5.1100000000e-04 5.1099893000e-04 0.0000e+00 -1.0000e+00
       50  1    1    2    0    0 -2.3644820807e-02 +3.6733198181e-02 +3.9343346908e+00 3.9345803842e+00 4.9935713700e-03 0.0000e+00 0.0000e+00
       11  1    1    2    0    0 -2.7261025428e-03 -5.2793727840e-02 +4.3038442549e+00 4.3041689373e+00 5.1099893000e-04 0.0000e+00 -1.0000e+00
<vert_displacement>
125.49427377590254
</vert_displacement>
</event>
<event>
 4   1200 +8.5212000e+10 1.60469000e-02 7.81665300e-03            nan
       50 -1    0    0    0    0 +2.9929669682e-03 +1.0286550149e-02 +3.1314668834e+01 3.1314671065e+01 4.9935713700e-03 0.0000e+00 0.0000e+00
       11 -1    0    0    0    0 +3.9924622052e-19 +1.3721722667e-18 +4.1772138857e-15 5.1100000000e-04 5.1099893000e-04 0.0000e+00 1.0000e+00
       50  1    1    2    0    0 -1.0775378125e-02 +1.6814481820e-02 +3.1085423913e+01 3.1085430730e+01 4.9935713700e-03 0.0000e+00 0.0000e+00
       11  1    1    2    0    0 +1.3768345093e-02 -6.5279316717e-03 +2.2924492106e-01 2.2975133551e-01 5.1099893000e-04 0.0000e+00 1.0000e+00
<vert_displacement>
258.96613325207448
</vert_displacement>
</event>
<event>
 4   1200 +8.5212000e+10 6.64196000e-03 7.81665300e-03            nan
       50 -1    0    0    0    0 +3.2689290570e-03 +3.4043207174e-04 +8.6348379526e+00 8.6348400220e+00 4.9935713700e-03 0.0000e+00 0.0000e+00
       11 -1    0    0    0    0 +4.7283979962e-20 +4.9242375646e-21 +1.2490008122e-16 5.1100000000e-04 5.1099893000e-04 0.0000e+00 -1.0000e+00
       50  1    1    2    0    0 +1.1634130451e-03 +4.1837270942e-03 +8.6160293912e+00 8.6160319325e+00 4.9935713700e-03 0.0000e+00 0.0000e+00
       11  1    1    2    0    0 +2.1055160119e-03 -3.8432950225e-03 +1.8808561455e-02 1.9319089477e-02 5.1099893000e-04 0.0000e+00 -1.0000e+00
<vert_displacement>
115.60973617425500
</vert_displacement>
</event>
<event>
 4   1200 +8.5212000e+10 1.73081400e-02 7.81665300e-03            nan
       50 -1    0    0    0    0 -1.5012679194e-02 -1.9864714558e-02 +1.3803959435e+01 1.3803982795e+01 4.9935713700e-03 0.0000e+00 0.0000e+00
       11 -1    0    0    0    0 -1.2829005516e-18 -1.6975286646e-18 +1.1796100446e-15 5.1100000000e-04 5.1099893000e-04 0.0000e+00 1.0000e+00
       50  1    1    2    0    0 -3.1483386340e-03 -7.6017180975e-03 +1.3529799758e+01 1.3529803182e+01 4.9935713700e-03 0.0000e+00 0.0000e+00
       11  1    1    2    0    0 -1.1864340560e-02 -1.2262996461e-02 +2.7415967680e-01 2.7469061353e-01 5.1099893000e-04 0.0000e+00 1.0000e+00
<vert_displacement>
5.1881401451932501
</vert_displacement>
</event>
<event>
 4   1200 +8.5212000e+10 1.15807700e-02 7.81665300e-03            nan
       50 -1    0    0    0    0 +3.7885915679e-03 +1.5828927151e-03 +2.8670821003e+00 2.8670893890e+00 4.9935713700e-03 0.0000e+00 0.0000e+00
       11 -1    0    0    0    0 -5.5014695200e-20 -2.2985417851e-20 -4.1633320730e-17 5.1100000000e-04 5.1099893000e-04 0.0000e+00 1.0000e+00
       50  1    1    2    0    0 -6.6509244076e-03 +3.3218233836e-03 +2.7558983948e+00 2.7559129463e+00 4.9935713700e-03 0.0000e+00 0.0000e+00
       11  1    1    2    0    0 +1.0439515976e-02 -1.7389306685e-03 +1.1118370552e-01 1.1168744274e-01 5.1099893000e-04 0.0000e+00 1.0000e+00
<vert_displacement>
105.11972358967977
</vert_displacement>
</event>
<event>
 4   1200 +8.5212000e+10 1.53091200e-02 7.81665300e-03            nan
       50 -1    0    0    0    0 -3.3303311532e-02 -1.0629875913e-02 +9.8468174335e+00 9.8468807553e+00 4.9935713700e-03 0.0000e+00 0.0000e+00
       11 -1    0    0    0    0 +4.9283136431e-19 +1.5730376373e-19 -1.4571585367e-16 5.1100000000e-04 5.1099893000e-04 0.0000e+00 1.0000e+00
       50  1    1    2    0    0 -4.4255455632e-02 -1.8975123952e-02 +9.6373703315e+00 9.6374919166e+00 4.9935713700e-03 0.0000e+00 0.0000e+00
       11  1    1    2    0    0 +1.0952144099e-02 +8.3452480384e-03 +2.0944710200e-01 2.0989983868e-01 5.1099893000e-04 0.0000e+00 1.0000e+00
<vert_displacement>
372.51471795835465
</vert_displacement>
</event>
<event>
 4   1200 +8.5212000e+10 1.25643300e-02 7.81665300e-03            nan
       50 -1    0    0    0    0 +8.4001472769e-02 +5.7943793699e-02 +2.5822260966e+01 2.5822463091e+01 4.9935713700e-03 0.0000e+00 0.0000e+00
       11 -1    0    0    0    0 -8.8484165100e-18 -6.1035932337e-18 -2.7200251701e-15 5.1100000000e-04 5.1099893000e-04 0.0000e+00 1.0000e+00
       50  1    1    2    0    0 +8.6146231946e-02 +4.6411170680e-02 +2.5691548637e+01 2.5691735470e+01 4.9935713700e-03 0.0000e+00 0.0000e+00
       11  1    1    2    0    0 -2.1447591763e-03 +1.1532623018e-02 +1.3071232902e-01 1.3123862032e-01 5.1099893000e-04 0.0000e+00 1.0000e+00
<vert_displacement>
249.84702362543712
</vert_displacement>
</event>
<event>
 4   1200 +8.5212000e+10 2.11131500e-02 7.81665300e-03            nan
       50 -1    0    0    0    0 -2.2654755294e-02 +2.6127058884e-03 +1.1553814023e+01 1.1553837608e+01 4.9935713700e-03 0.0000e+00 0.0000e+00
       11 -1    0    0    0    0 -2.0816841470e-18 +2.4007447259e-19 +1.0616486993e-15 5.1100000000e-04 5.1099893000e-04 0.0000e+00 1.0000e+00
       50  1    1    2    0    0 -3.4096925640e-02 -1.3916073990e-02 +1.1126143934e+01 1.1126206003e+01 4.9935713700e-03 0.0000e+00 0.0000e+00
       11  1    1    2    0    0 +1.1442170347e-02 +1.6528779878e-02 +4.2767008924e-01 4.2814260496e-01 5.1099893000e-04 0.0000e+00 1.0000e+00
<vert_displacement>
230.43871110430632
</vert_displacement>
</event>
<event>
 4   1200 +8.5212000e+10 7.65465500e-03 7.81665300e-03            nan
       50 -1    0    0    0    0 -2.1158708787e-02 -2.5878555097e-02 +1.0316479149e+01 1.0316534513e+01 4.9935713700e-03 0.0000e+00 0.0000e+00
       11 -1    0    0    0    0 -1.4231334411e-20 -1.7405900113e-20 +6.9388574790e-18 5.1100000000e-04 5.1099893000e-04 0.0000e+00 1.0000e+00
       50  1    1    2    0    0 -1.6702574325e-02 -2.2000957811e-02 +1.0283456689e+01 1.0283495000e+01 4.9935713700e-03 0.0000e+00 0.0000e+00
       11  1    1    2    0    0 -4.4561344618e-03 -3.8775972860e-03 +3.3022460058e-02 3.3550512414e-02 5.1099893000e-04 0.0000e+00 1.0000e+00
<vert_displacement>
440.65429618755047
</vert_displacement>
</event>
<event>
 4   1200 +8.5212000e+10 6.62740400e-03 7.81665300e-03            nan
       50 -1    0    0    0    0 -3.5615791099e-02 +6.9698035703e-04 +1.7810330467e+01 1.7810366792e+01 4.9935713700e-03 0.0000e+00 0.0000e+00
       11 -1    0    0    0    0 -9.7131039377e-19 +1.9007980565e-20 +4.8572160172e-16 5.1100000000e-04 5.1099893000e-04 0.0000e+00 1.0000e+00
       50  1    1    2    0    0 -3.1229739454e-02 +4.2411985333e-04 +1.7791741226e+01 1.7791769340e+01 4.9935713700e-03 0.0000e+00 0.0000e+00
       11  1    1    2    0    0 -4.3860516452e-03 +2.7286050371e-04 +1.8589241491e-02 1.9108451560e-02 5.1099893000e-04 0.0000e+00 1.0000e+00
<vert_displacement>
12.019715099492370
</vert_displacement>
</event>
<event>
 4   1200 +8.5212000e+10 2.08091700e-02 7.81665300e-03            nan
       50 -1    0    0    0    0 +3.9492906783e-03 -1.3809352533e-03 +1.3226007220e+01 1.3226008825e+01 4.9935713700e-03 0.0000e+00 0.0000e+00
       11 -1    0    0    0    0 +1.2846128431e-19 -4.4918627326e-20 +4.3021140052e-16 5.1100000000e-04 5.1099893000e-04 0.0000e+00 1.0000e+00
       50  1    1    2    0    0 -1.5805637457e-02 -6.0998375970e-03 +1.2813827054e+01 1.2813839227e+01 4.9935713700e-03 0.0000e+00 0.0000e+00
       11  1    1    2    0    0 +1.9754928136e-02 +4.7189023438e-03 +4.1218016665e-01 4.1268059819e-01 5.1099893000e-04 0.0000e+00 1.0000e+00
<vert_displacement>
282.44478923576463
</vert_displacement>
</event>
<event>
 4   1200 +8.5212000e+10 1.07215000e-02 7.81665300e-03            nan
       50 -1    0    0    0    0 +5.9299102956e-03 +5.8171467974e-03 +4.1870213456e+00 4.1870325635e+00 4.9935713700e-03 0.0000e+00 0.0000e+00
       11 -1    0    0    0    0 -5.1101739623e-19 -5.0129986150e-19 -3.6082177290e-16 5.1100000000e-04 5.1099893000e-04 0.0000e+00 1.0000e+00
       50  1    1    2    0    0 +9.5905021175e-03 +1.4390608510e-02 +4.0969689280e+00 4.0970084696e+00 4.9935713700e-03 0.0000e+00 0.0000e+00
       11  1    1    2    0    0 -3.6605918219e-03 -8.5734617131e-03 +9.0052417627e-02 9.0535093851e-02 5.1099893000e-04 0.0000e+00 1.0000e+00
<vert_displacement>
325.64802480576407
</vert_displacement>
</event>
<event>
 4   1200 +8.5212000e+10 3.19480200e-02 7.81665300e-03            nan
       50 -1    0    0    0    0 -4.0530250638e-02 +7.9294394182e-02 +5.1130433638e+01 5.1130511432e+01 4.9935713700e-03 0.0000e+00 0.0000e+00
       11 -1    0    0    0    0 +2.0351251717e-18 -3.9815696926e-18 -2.5673868505e-15 5.1100000000e-04 5.1099893000e-04 0.0000e+00 1.0000e+00
       50  1    1    2    0    0 -4.5086961424e-02 +1.0885288361e-01 +5.0136749025e+01 5.0136887713e+01 4.9935713700e-03 0.0000e+00 0.0000e+00
       11  1    1    2    0    0 +4.5567107860e-03 -2.9558489429e-02 +9.9368461290e-01 9.9413471871e-01 5.1099893000e-04 0.0000e+00 1.0000e+00
<vert_displacement>
60.652694455926252
</vert_displacement>
</event>
<event>
 4   1200 +8.5212000e+10 2.99133900e-02 7.81665300e-03            nan
       50 -1    0    0    0    0 -8.5788380396e-02 +7.8249250970e-02 +3.8366137129e+01 3.8366313163e+01 4.9935713700e-03 0.0000e+00 0.0000e+00
       11 -1    0    0    0    0 +6.1441786971e-18 -5.6042249388e-18 -2.7477894016e-15 5.1100000000e-04 5.1099893000e-04 0.0000e+00 -1.0000e+00
       50  1    1    2    0    0 -1.1321571533e-01 +7.3828581671e-02 +3.7495136335e+01 3.7495380277e+01 4.9935713700e-03 0.0000e+00 0.0000e+00
       11  1    1    2    0    0 +2.7427334933e-02 +4.4206692997e-03 +8.7100079388e-01 8.7144388521e-01 5.1099893000e-04 0.0000e+00 -1.0000e+00
<vert_displacement>
448.91476588052126
</vert_displacement>
</event>
<event>
 4   1200 +8.5212000e+10 2.57919300e-02 7.81665300e-03            nan
       50 -1    0    0    0    0 +1.8520178838e-03 -9.7100343594e-03 +5.8035082781e+00 5.8035188450e+00 4.9935713700e-03 0.0000e+00 0.0000e+00
       11 -1    0    0    0    0 -1.5721809647e-19 +8.2428638081e-19 -4.9266075252e-16 5.1100000000e-04 5.1099893000e-04 0.0000e+00 1.0000e+00
       50  1    1    2    0    0 -1.3358928278e-02 +1.1877529820e-02 +5.0885279925e+00 5.0885618403e+00 4.9935713700e-03 0.0000e+00 0.0000e+00
       11  1    1    2    0    0 +1.5210946161e-02 -2.1587564179e-02 +7.1498028555e-01 7.1546800464e-01 5.1099893000e-04 0.0000e+00 1.0000e+00
<vert_displacement>
184.04281014548388
</vert_displacement>
</event>
<event>
 4   1200 +8.5212000e+10 7.46317200e-03 7.81665300e-03            nan
       50 -1    0    0    0    0 +2.3528228451e-03 +2.9298525270e-02 +1.5815094115e+01 1.5815122217e+01 4.9935713700e-03 0.0000e+00 0.0000e+00
       11 -1    0    0    0    0 +9.4971822489e-20 +1.1826365708e-18 +6.3837713664e-16 5.1100000000e-04 5.1099893000e-04 0.0000e+00 1.0000e+00
       50  1    1    2    0    0 +4.1041689438e-03 +2.3981460186e-02 +1.5784944111e+01 1.5784963652e+01 4.9935713700e-03 0.0000e+00 0.0000e+00
       11  1    1    2    0    0 -1.7513460987e-03 +5.3170650842e-03 +3.0150003355e-02 3.0669564987e-02 5.1099893000e-04 0.0000e+00 1.0000e+00
<vert_displacement>
436.37264633439963
</vert_displacement>
</event>
<event>
 4   1200 +8.5212000e+10 1.64189800e-02 7.81665300e-03            nan
       50 -1    0    0    0    0 -1.6200303395e-02 -9.7599897309e-03 +1.1157914875e+01 1.1157932022e+01 4.9935713700e-03 0.0000e+00 0.0000e+00
       11 -1    0    0    0    0 +4.1306042173e-19 +2.4885123297e-19 -2.8449424136e-16 5.1100000000e-04 5.1099893000e-04 0.0000e+00 1.0000e+00
       50  1    1    2    0    0 -1.9461253060e-03 -2.3716191882e-03 +1.0913168707e+01 1.0913170281e+01 4.9935713700e-03 0.0000e+00 0.0000e+00
       11  1    1    2    0    0 -1.4254178089e-02 -7.3883705427e-03 +2.4474616805e-01 2.4527274106e-01 5.1099893000e-04 0.0000e+00 1.0000e+00
<vert_displacement>
490.79703266157668
</vert_displacement>
</event>
<event>
 4   1200 +8.5212000e+10 8.51363600e-03 7.81665300e-03            nan
       50 -1    0    0    0    0 +1.6883332526e-02 +1.1639077377e-02 +6.1333618667e+00 6.1333981804e+00 4.9935713700e-03 0.0000e+00 0.0000e+00
       11 -1    0    0    0    0 +3.2471049570e-19 +2.2384979855e-19 +1.1796053706e-16 5.1100000000e-04 5.1099893000e-04 0.0000e+00 1.0000e+00
       50  1    1    2    0    0 +2.3632381018e-02 +1.2037357185e-02 +6.0864558080e+00 6.0865156392e+00 4.9935713700e-03 0.0000e+00 0.0000e+00
       11  1    1    2    0    0 -6.7490484917e-03 -3.9827980778e-04 +4.6906058669e-02 4.7393541144e-02 5.1099893000e-04 0.0000e+00 1.0000e+00
<vert_displacement>
30.284529317862642
</vert_displacement>
</event>
<event>
 4   1200 +8.5212000e+10 1.51450100e-02 7.81665300e-03            nan
       50 -1    0    0    0    0 +1.5683921485e-02 -1.2969610611e-02 +1.6764820028e+01 1.6764833125e+01 4.9935713700e-03 0.0000e+00 0.0000e+00
       11 -1    0    0    0    0 +1.5579622587e-19 -1.2883362023e-19 +1.6653333098e-16 5.1100000000e-04 5.1099893000e-04 0.0000e+00 1.0000e+00
       50  1    1    2    0    0 +1.5155583858e-03 -9.8088223120e-03 +1.6562345463e+01 1.6562349190e+01 4.9935713700e-03 0.0000e+00 0.0000e+00
       11  1    1    2    0    0 +1.4168363099e-02 -3.1607882993e-03 +2.0247456503e-01 2.0299493516e-01 5.1099893000e-04 0.0000e+00 1.0000e+00
<vert_displacement>
33.167815061153142
</vert_displacement>
</event>
<event>
 4   1200 +8.5212000e+10 9.83237900e-03 7.81665300e-03            nan
       50 -1    0    0    0    0 -6.4711148029e-03 +3.4621649839e-02 +1.8359312584e+01 1.8359347048e+01 4.9935713700e-03 0.0000e+00 0.0000e+00
       11 -1    0    0    0    0 -5.8208859949e-19 +3.1142806581e-18 +1.6514537101e-15 5.1100000000e-04 5.1099893000e-04 0.0000e+00 1.0000e+00
       50  1    1    2    0    0 -2.6144633888e-03 +2.6935161668e-02 +1.8288859907e+01 1.8288880610e+01 4.9935713700e-03 0.0000e+00 0.0000e+00
       11  1    1    2    0    0 -3.8566514140e-03 +7.6864881709e-03 +7.0452677196e-02 7.0977437996e-02 5.1099893000e-04 0.0000e+00 1.0000e+00
<vert_displacement>
93.005873048780856
</vert_displacement>
</event>
<event>
 4   1200 +8.5212000e+10 2.08794100e-02 7.81665300e-03            nan
       50 -1    0    0    0    0 -2.6665874912e-02 +8.9256155408e-03 +1.6556247568e+01 1.6556272202e+01 4.9935713700e-03 0.0000e+00 0.0000e+00
       11 -1    0    0    0    0 -1.7881482791e-19 +5.9852992343e-20 +1.1102214233e-16 5.1100000000e-04 5.1099893000e-04 0.0000e+00 1.0000e+00
       50  1    1    2    0    0 -2.1372383009e-02 -1.1034644033e-02 +1.6143796661e+01 1.6143815352e+01 4.9935713700e-03 0.0000e+00 0.0000e+00
       11  1    1    2    0    0 -5.2934919027e-03 +1.9960259574e-02 +4.1245090725e-01 4.1296784987e-01 5.1099893000e-04 0.0000e+00 1.0000e+00
<vert_displacement>
108.38186727324026
</vert_displacement>
</event>
<event>
 4   1200 +8.5212000e+10 4.06867400e-02 7.81665300e-03            nan
       50 -1    0    0    0    0 -1.4951664783e-02 +3.5428615290e-02 +1.3635869709e+01 1.3635924846e+01 4.9935713700e-03 0.0000e+00 0.0000e+00
       11 -1    0    0    0    0 +6.8475898312e-20 -1.6225659772e-19 -6.2449796807e-17 5.1100000000e-04 5.1099893000e-04 0.0000e+00 1.0000e+00
       50  1    1    2    0    0 -1.0060441040e-02 -9.6439199330e-03 +1.1790278372e+01 1.1790287666e+01 4.9935713700e-03 0.0000e+00 0.0000e+00
       11  1    1    2    0    0 -4.8912237425e-03 +4.5072535223e-02 +1.8455913375e+00 1.8461481803e+00 5.1099893000e-04 0.0000e+00 1.0000e+00
<vert_displacement>
97.369531770693001
</vert_displacement>
</event>
<event>
 4   1200 +8.5212000e+10 2.58386800e-02 7.81665300e-03            nan
       50 -1    0    0    0    0 +8.4932578158e-02 -6.9942146906e-03 +2.7814516525e+01 2.7814647524e+01 4.9935713700e-03 0.0000e+00 0.0000e+00
       11 -1    0    0    0    0 +1.1017786296e-18 -9.0731689114e-20 +3.6082078944e-16 5.1100000000e-04 5.1099893000e-04 0.0000e+00 1.0000e+00
       50  1    1    2    0    0 +9.3252921528e-02 -3.0003320637e-02 +2.7170690099e+01 2.7170867150e+01 4.9935713700e-03 0.0000e+00 0.0000e+00
       11  1    1    2    0    0 -8.3203433700e-03 +2.3009105946e-02 +6.4382642568e-01 6.4429137399e-01 5.1099893000e-04 0.0000e+00 1.0000e+00
<vert_displacement>
242.78200376482837
</vert_displacement>
</event>
<event>
 4   1200 +8.5212000e+10 3.08792000e-02 7.81665300e-03            nan
       50 -1    0    0    0    0 +8.9895125876e-03 +3.2652997158e-03 +4.6473096644e+00 4.6473221887e+00 4.9935713700e-03 0.0000e+00 0.0000e+00
       11 -1    0    0    0    0 +4.0266614344e-20 +1.4626217283e-20 +2.0816637629e-17 5.1100000000e-04 5.1099893000e-04 0.0000e+00 1.0000e+00
       50  1    1    2    0    0 +2.5934479097e-02 +2.5933709121e-02 +3.4045018495e+00 3.4047030610e+00 4.9935713700e-03 0.0000e+00 0.0000e+00
       11  1    1    2    0    0 -1.6944966510e-02 -2.2668409406e-02 +1.2428078149e+00 1.2431301277e+00 5.1099893000e-04 0.0000e+00 1.0000e+00
<vert_displacement>
127.58909363084372
</vert_displacement>
</event>
<event>
 4   1200 +8.5212000e+10 7.62380500e-03 7.81665300e-03            nan
       50 -1    0    0    0    0 -1.4359313650e-02 +8.1889919912e-03 +4.3264597052e+00 4.3264941657e+00 4.9935713700e-03 0.0000e+00 0.0000e+00
       11 -1    0    0    0    0 +2.3029690207e-19 -1.3133632516e-19 -6.9388432574e-17 5.1100000000e-04 5.1099893000e-04 0.0000e+00 1.0000e+00
       50  1    1    2    0    0 -1.9979559779e-02 +7.5216538048e-03 +4.2937170601e+00 4.2937730361e+00 4.9935713700e-03 0.0000e+00 0.0000e+00
       11  1    1    2    0    0 +5.6202461288e-03 +6.6733818641e-04 +3.2742645135e-02 3.3232129590e-02 5.1099893000e-04 0.0000e+00 1.0000e+00
<vert_displacement>
411.94578678177078
</vert_displacement>
</event>
<event>
 4   1200 +8.5212000e+10 2.86872900e-02 7.81665300e-03            nan
       50 -1    0    0    0    0 -8.2261096407e-03 +2.5710987516e-03 +8.6439882544e+00 8.6439939934e+00 4.9935713700e-03 0.0000e+00 0.0000e+00
       11 -1    0    0    0    0 -1.3140849253e-18 +4.1072174557e-19 +1.3808392005e-15 5.1100000000e-04 5.1099893000e-04 0.0000e+00 1.0000e+00
       50  1    1    2    0    0 +1.8755367537e-02 -8.3612494339e-03 +7.7756442931e+00 7.7756730115e+00 4.9935713700e-03 0.0000e+00 0.0000e+00
       11  1    1    2    0    0 -2.6981477178e-02 +1.0932348185e-02 +8.6834396133e-01 8.6883198183e-01 5.1099893000e-04 0.0000e+00 1.0000e+00
<vert_displacement>
139.90230361746609
</vert_displacement>
</event>
<event>
 4   1200 +8.5212000e+10 1.16260400e-02 7.81665300e-03            nan
       50 -1    0    0    0    0 -4.1378046326e-02 -3.9944517305e-02 +4.5635441707e+01 4.5635478220e+01 4.9935713700e-03 0.0000e+00 0.0000e+00
       11 -1    0    0    0    0 -1.0695634334e-18 -1.0325087545e-18 +1.1796110269e-15 5.1100000000e-04 5.1099893000e-04 0.0000e+00 1.0000e+00
       50  1    1    2    0    0 -5.1079525420e-02 -4.3617973643e-02 +4.5527316011e+01 4.5527365834e+01 4.9935713700e-03 0.0000e+00 0.0000e+00
       11  1    1    2    0    0 +9.7014790939e-03 +3.6734563378e-03 +1.0812569572e-01 1.0862338686e-01 5.1099893000e-04 0.0000e+00 1.0000e+00
<vert_displacement>
430.77255721768933
</vert_displacement>
</event>
<event>
 4   1200 +8.5212000e+10 9.87951900e-03 7.81665300e-03            nan
       50 -1    0    0    0    0 +6.1512511619e-02 +1.2019990073e-02 +4.6716261417e+01 4.6716303728e+01 4.9935713700e-03 0.0000e+00 0.0000e+00
       11 -1    0    0    0    0 -4.8424049622e-18 -9.4624098483e-19 -3.6776104593e-15 5.1100000000e-04 5.1099893000e-04 0.0000e+00 1.0000e+00
       50  1    1    2    0    0 +6.1222187312e-02 +2.0524019522e-02 +4.6645045329e+01 4.6645090289e+01 4.9935713700e-03 0.0000e+00 0.0000e+00
       11  1    1    2    0    0 +2.9032430620e-04 -8.5040294495e-03 +7.1216088632e-02 7.1724439385e-02 5.1099893000e-04 0.0000e+00 1.0000e+00
<vert_displacement>
255.27345266515184
</vert_displacement>
</event>
<event>
 4   1200 +8.5212000e+10 1.72907400e-02 7.81665300e-03            nan
       50 -1    0    0    0    0 +1.4972300403e-02 -1.8285058569e-02 +1.3106737607e+01 1.3106759864e+01 4.9935713700e-03 0.0000e+00 0.0000e+00
       11 -1    0    0    0    0 -7.8472712163e-19 +9.5835516205e-19 -6.8694937978e-16 5.1100000000e-04 5.1099893000e-04 0.0000e+00 -1.0000e+00
       50  1    1    2    0    0 +1.2832592256e-02 -3.4355817936e-02 +1.2832838282e+01 1.2832891658e+01 4.9935713700e-03 0.0000e+00 0.0000e+00
       11  1    1    2    0    0 +2.1397081471e-03 +1.6070759368e-02 +2.7389932414e-01 2.7437920574e-01 5.1099893000e-04 0.0000e+00 -1.0000e+00
<vert_displacement>
354.63769269206733
</vert_displacement>
</event>
<event>
 4   1200 +8.5212000e+10 2.54947900e-02 7.81665300e-03            nan
       50 -1    0    0    0    0 -5.5672309810e-03 +3.0666734362e-02 +1.7387308381e+01 1.7387337033e+01 4.9935713700e-03 0.0000e+00 0.0000e+00
       11 -1    0    0    0    0 -4.6656883647e-19 +2.5700644752e-18 +1.4571653787e-15 5.1100000000e-04 5.1099893000e-04 0.0000e+00 1.0000e+00
       50  1    1    2    0    0 +1.1765486869e-02 +1.1336394988e-02 +1.6752525691e+01 1.6752534403e+01 4.9935713700e-03 0.0000e+00 0.0000e+00
       11  1    1    2    0    0 -1.7332717850e-02 +1.9330339374e-02 +6.3478268941e-01 6.3531363044e-01 5.1099893000e-04 0.0000e+00 1.0000e+00
<vert_displacement>
379.08921947457497
</vert_displacement>
</event>
<event>
 4   1200 +8.5212000e+10 1.41786400e-02 7.81665300e-03            nan
       50 -1    0    0    0    0 +2.4088386017e-02 -2.3104232643e-02 +1.1808420865e+01 1.1808469093e+01 4.9935713700e-03 0.0000e+00 0.0000e+00
       11 -1    0    0    0    0 +2.8168094387e-18 -2.7017260739e-18 +1.3808343708e-15 5.1100000000e-04 5.1099893000e-04 0.0000e+00 1.0000e+00
       50  1    1    2    0    0 +1.0465322858e-02 -2.3084334732e-02 +1.1633536958e+01 1.1633565640e+01 4.9935713700e-03 0.0000e+00 0.0000e+00
       11  1    1    2    0    0 +1.3623063159e-02 -1.9897910519e-05 +1.7488390706e-01 1.7541445298e-01 5.1099893000e-04 0.0000e+00 1.0000e+00
<vert_displacement>
123.15868611414608
</vert_displacement>
</event>
<event>
 4   1200 +8.5212000e+10 2.78857500e-02 7.81665300e-03            nan
       50 -1    0    0    0    0 +3.8192362540e-02 -1.9511170192e-02 +1.2711755851e+01 1.2711829180e+01 4.9935713700e-03 0.0000e+00 0.0000e+00
       11 -1    0    0    0    0 +1.3967978546e-18 -7.1357619307e-19 +4.6490324560e-16 5.1100000000e-04 5.1099893000e-04 0.0000e+00 1.0000e+00
       50  1    1    2    0    0 +2.3630129339e-02 +6.2651474728e-03 +1.1926749361e+01 1.1926775460e+01 4.9935713700e-03 0.0000e+00 0.0000e+00
       11  1    1    2    0    0 +1.4562233201e-02 -2.5776317665e-02 +7.8500649091e-01 7.8556471986e-01 5.1099893000e-04 0.0000e+00 1.0000e+00
<vert_displacement>
208.51990047920350
</vert_displacement>
</event>
<event>
 4   1200 +8.5212000e+10 6.99292500e-03 7.81665300e-03            nan
       50 -1    0    0    0    0 -1.8330504753e-02 -4.0482100031e-02 +2.0843961806e+01 2.0844009775e+01 4.9935713700e-03 0.0000e+00 0.0000e+00
       11 -1    0    0    0    0 +9.8854952091e-19 +2.1831674102e-18 -1.1240982577e-15 5.1100000000e-04 5.1099893000e-04 0.0000e+00 1.0000e+00
       50  1    1    2    0    0 -1.5479152070e-02 -4.4430541062e-02 +2.0820480179e+01 2.0820533939e+01 4.9935713700e-03 0.0000e+00 0.0000e+00
       11  1    1    2    0    0 -2.8513526838e-03 +3.9484410313e-03 +2.3481626361e-02 2.3986835873e-02 5.1099893000e-04 0.0000e+00 1.0000e+00
<vert_displacement>
410.91571257758449
</vert_displacement>
</event>
<event>
 4   1200 +8.5212000e+10 8.53154100e-03 7.81665300e-03            nan
       50 -1    0    0    0    0 +2.1783653025e-02 +1.9993948626e-02 +9.2154923818e+00 9.2155411702e+00 4.9935713700e-03 0.0000e+00 0.0000e+00
       11 -1    0    0    0    0 -4.9206381886e-20 -4.5163677110e-20 -2.0816574561e-17 5.1100000000e-04 5.1099893000e-04 0.0000e+00 1.0000e+00
       50  1    1    2    0    0 +1.7021688138e-02 +1.4771112843e-02 +9.1684497643e+00 9.1684788237e+00 4.9935713700e-03 0.0000e+00 0.0000e+00
       11  1    1    2    0    0 +4.7619648870e-03 +5.2228357831e-03 +4.7042617486e-02 4.7573346561e-02 5.1099893000e-04 0.0000e+00 1.0000e+00
<vert_displacement>
186.28313166170852
</vert_displacement>
</event>
<event>
 4   1200 +8.5212000e+10 3.48634400e-02 7.81665300e-03            nan
       50 -1    0    0    0    0 -1.3458277972e-02 -5.4285649398e-03 +5.4433838328e+00 5.4434054673e+00 4.9935713700e-03 0.0000e+00 0.0000e+00
       11 -1    0    0    0    0 +1.8528189946e-18 +7.4735774183e-19 -7.4939787850e-16 5.1100000000e-04 5.1099893000e-04 0.0000e+00 1.0000e+00
       50  1    1    2    0    0 +2.0564937662e-02 +1.3599884378e-02 +3.7480909120e+00 3.7481753286e+00 4.9935713700e-03 0.0000e+00 0.0000e+00
       11  1    1    2    0    0 -3.4023215634e-02 -1.9028449318e-02 +1.6952929208e+00 1.6957411387e+00 5.1099893000e-04 0.0000e+00 1.0000e+00
<vert_displacement>
322.90066787915453
</vert_displacement>
</event>
<event>
 4   1200 +8.5212000e+10 2.23689000e-02 7.81665300e-03            nan
       50 -1    0    0    0    0 +1.0120856627e-01 -6.8281765019e-03 +3.4959668529e+01 3.4959816052e+01 4.9935713700e-03 0.0000e+00 0.0000e+00
       11 -1    0    0    0    0 +7.2718842250e-18 -4.9060776989e-19 +2.5118690192e-15 5.1100000000e-04 5.1099893000e-04 0.0000e+00 1.0000e+00
       50  1    1    2    0    0 +1.1842801058e-01 +4.6674546325e-03 +3.4488049319e+01 3.4488253330e+01 4.9935713700e-03 0.0000e+00 0.0000e+00
       11  1    1    2    0    0 -1.7219444317e-02 -1.1495631134e-02 +4.7161920982e-01 4.7207372199e-01 5.1099893000e-04 0.0000e+00 1.0000e+00
<vert_displacement>
302.75606406883929
</vert_displacement>
</event>
<event>
 4   1200 +8.5212000e+10 1.49576100e-02 7.81665300e-03            nan
       50 -1    0    0    0    0 +1.6014826097e-02 +5.7022754850e-03 +5.5742449318e+00 5.5742730903e+00 4.9935713700e-03 0.0000e+00 0.0000e+00
       11 -1    0    0    0    0 +7.9741499538e-19 +2.8392940092e-19 +2.7755446545e-16 5.1100000000e-04 5.1099893000e-04 0.0000e+00 1.0000e+00
       50  1    1    2    0    0 +7.2648781194e-03 +1.6986894288e-02 +5.3723818156e+00 5.3724159036e+00 4.9935713700e-03 0.0000e+00 0.0000e+00
       11  1    1    2    0    0 +8.7499479775e-03 -1.1284618803e-02 +2.0186311614e-01 2.0236818670e-01 5.1099893000e-04 0.0000e+00 1.0000e+00
<vert_displacement>
371.60643888931463
</vert_displacement>
</event>
<event>
 4   1200 +8.5212000e+10 1.80519000e-02 7.81665300e-03            nan
       50 -1    0    0    0    0 +2.4372061024e-02 -2.8076101559e-02 +1.1021315703e+01 1.1021379542e+01 4.9935713700e-03 0.0000e+00 0.0000e+00
       11 -1    0    0    0    0 -1.3963297223e-18 +1.6085424639e-18 -6.3143575254e-16 5.1100000000e-04 5.1099893000e-04 0.0000e+00 1.0000e+00
       50  1    1    2    0    0 +7.1247921065e-03 -2.2194527660e-02 +1.0718558513e+01 1.0718585023e+01 4.9935713700e-03 0.0000e+00 0.0000e+00
       11  1    1    2    0    0 +1.7247268918e-02 -5.8815738987e-03 +3.0275718984e-01 3.0330551976e-01 5.1099893000e-04 0.0000e+00 1.0000e+00
<vert_displacement>
384.79424903037301
</vert_displacement>
</event>
<event>
 4   1200 +8.5212000e+10 1.21982500e-02 7.81665300e-03            nan
       50 -1    0    0    0    0 -2.6784949664e-02 -1.7629576896e-03 +9.8278381559e+00 9.8278760827e+00 4.9935713700e-03 0.0000e+00 0.0000e+00
       11 -1    0    0    0    0 -8.6991996368e-19 -5.7257232457e-20 +3.1918792900e-16 5.1100000000e-04 5.1099893000e-04 0.0000e+00 1.0000e+00
       50  1    1    2    0    0 -1.5362883587e-02 -7.7820875575e-04 +9.7051307286e+00 9.7051442039e+00 4.9935713700e-03 0.0000e+00 0.0000e+00
       11  1    1    2    0    0 -1.1422066077e-02 -9.8474893380e-04 +1.2270742737e-01 1.2324287880e-01 5.1099893000e-04 0.0000e+00 1.0000e+00
<vert_displacement>
375.76782794458461
</vert_displacement>
</event>
<event>
 4   1200 +8.5212000e+10 2.08372200e-02 7.81665300e-03            nan
       50 -1    0    0    0    0 -3.6016720756e-02 +4.0439797738e-02 +2.5680573228e+01 2.5680630811e+01 4.9935713700e-03 0.0000e+00 0.0000e+00
       11 -1    0    0    0    0 -1.3624380761e-18 +1.5297539329e-18 +9.7144298668e-16 5.1100000000e-04 5.1099893000e-04 0.0000e+00 1.0000e+00
       50  1    1    2    0    0 -3.0213902047e-02 +2.0257357483e-02 +2.5273706709e+01 2.5273733380e+01 4.9935713700e-03 0.0000e+00 0.0000e+00
       11  1    1    2    0    0 -5.8028187090e-03 +2.0182440255e-02 +4.0686651967e-01 4.0740843088e-01 5.1099893000e-04 0.0000e+00 1.0000e+00
<vert_displacement>
405.09224597490146
</vert_displacement>
</event>
<event>
 4   1200 +8.5212000e+10 2.55528600e-02 7.81665300e-03            nan
       50 -1    0    0    0    0 +4.0075664128e-03 +5.7043544010e-03 +2.5212225286e+00 2.5212371119e+00 4.9935713700e-03 0.0000e+00 0.0000e+00
       11 -1    0    0    0    0 -5.5147793444e-21 -7.8497154091e-21 -3.4694336889e-18 5.1100000000e-04 5.1099893000e-04 0.0000e+00 1.0000e+00
       50  1    1    2    0    0 -1.7730373426e-02 -1.1867483507e-02 +1.4283577119e+00 1.4285257758e+00 4.9935713700e-03 0.0000e+00 0.0000e+00
       11  1    1    2    0    0 +2.1737939839e-02 +1.7571837908e-02 +1.0928648167e+00 1.0932223361e+00 5.1099893000e-04 0.0000e+00 1.0000e+00
<vert_displacement>
30.685825233079566
</vert_displacement>
</event>
<event>
 4   1200 +8.5212000e+10 1.25332300e-02 7.81665300e-03            nan
       50 -1    0    0    0    0 +8.2195191909e-03 +1.5485082058e-02 +1.7161788517e+01 1.7161798198e+01 4.9935713700e-03 0.0000e+00 0.0000e+00
       11 -1    0    0    0    0 +2.4592665809e-19 +4.6331110035e-19 +5.1347788097e-16 5.1100000000e-04 5.1099893000e-04 0.0000e+00 1.0000e+00
       50  1    1    2    0    0 +2.3016237305e-03 +2.5259903116e-02 +1.7031486480e+01 1.7031506100e+01 4.9935713700e-03 0.0000e+00 0.0000e+00
       11  1    1    2    0    0 +5.9178954604e-03 -9.7748210584e-03 +1.3030203681e-01 1.3080309832e-01 5.1099893000e-04 0.0000e+00 1.0000e+00
<vert_displacement>
331.99622668142734
</vert_displacement>
</event>
<event>
 4   1200 +8.5212000e+10 1.14881900e-02 7.81665300e-03            nan
       50 -1    0    0    0    0 +1.4484510927e-02 +1.0217044378e-02 +4.4441438807e+00 4.4441820347e+00 4.9935713700e-03 0.0000e+00 0.0000e+00
       11 -1    0    0    0    0 -1.5604562907e-18 -1.1007103555e-18 -4.7877987118e-16 5.1100000000e-04 5.1099893000e-04 0.0000e+00 -1.0000e+00
       50  1    1    2    0    0 +4.6705376483e-03 +5.7902114995e-03 +4.3368269606e+00 4.3368362158e+00 4.9935713700e-03 0.0000e+00 0.0000e+00
       11  1    1    2    0    0 +9.8139732784e-03 +4.4268328783e-03 +1.0731692008e-01 1.0785681887e-01 5.1099893000e-04 0.0000e+00 -1.0000e+00
<vert_displacement>
300.44842321187241
</vert_displacement>
</event>
<event>
 4   1200 +8.5212000e+10 2.69301900e-02 7.81665300e-03            nan
       50 -1    0    0    0    0 +3.3402550649e-02 -2.8488569282e-02 +2.5403676376e+01 2.5403714801e+01 4.9935713700e-03 0.0000e+00 0.0000e+00
       11 -1    0    0    0    0 -1.2773228873e-18 +1.0894108643e-18 -9.7144369594e-16 5.1100000000e-04 5.1099893000e-04 0.0000e+00 1.0000e+00
       50  1    1    2    0    0 +6.0166085980e-03 -2.7241697338e-02 +2.4698901421e+01 2.4698917682e+01 4.9935713700e-03 0.0000e+00 0.0000e+00
       11  1    1    2    0    0 +2.7385942051e-02 -1.2468719447e-03 +7.0477495446e-01 7.0530811853e-01 5.1099893000e-04 0.0000e+00 1.0000e+00
<vert_displacement>
325.14397178172544
</vert_displacement>
</event>
<event>
 4   1200 +8.5212000e+10 2.49747900e-02 7.81665300e-03            nan
       50 -1    0    0    0    0 -2.8205534929e-02 -2.4599118393e-02 +2.0195649643e+01 2.0195684938e+01 4.9935713700e-03 0.0000e+00 0.0000e+00
       11 -1    0    0    0    0 +1.6280783306e-18 +1.4199089544e-18 -1.1657321742e-15 5.1100000000e-04 5.1099893000e-04 0.0000e+00 -1.0000e+00
       50  1    1    2    0    0 -1.4427956139e-02 -4.4636358883e-02 +1.9591627993e+01 1.9591684790e+01 4.9935713700e-03 0.0000e+00 0.0000e+00
       11  1    1    2    0    0 -1.3777578790e-02 +2.0037240490e-02 +6.0402165046e-01 6.0451114798e-01 5.1099893000e-04 0.0000e+00 -1.0000e+00
<vert_displacement>
447.03986514749636
</vert_displacement>
</event>
<event>
 4   1200 +8.5212000e+10 9.50026800e-03 7.81665300e-03            nan
       50 -1    0    0    0    0 +1.8120969753e-02 +2.0109919709e-02 +1.0266151725e+01 1.0266188629e+01 4.9935713700e-03 0.0000e+00 0.0000e+00
       11 -1    0    0    0    0 -3.1844603244e-19 -3.5339853392e-19 -1.8041061433e-16 5.1100000000e-04 5.1099893000e-04 0.0000e+00 1.0000e+00
       50  1    1    2    0    0 +2.5381466986e-02 +2.3291892809e-02 +1.0201812082e+01 1.0201871467e+01 4.9935713700e-03 0.0000e+00 0.0000e+00
       11  1    1    2    0    0 -7.2604972326e-03 -3.1819730998e-03 +6.4339643110e-02 6.4828161846e-02 5.1099893000e-04 0.0000e+00 1.0000e+00
<vert_displacement>
58.131904331851530
</vert_displacement>
</event>
<event>
 4   1200 +8.5212000e+10 6.38877300e-03 7.81665300e-03            nan
       50 -1    0    0    0    0 -3.0642870037e-02 +8.6526405766e-02 +6.8066681076e+01 6.8066743153e+01 4.9935713700e-03 0.0000e+00 0.0000e+00
       11 -1    0    0    0    0 -2.8739058994e-19 +8.1150606220e-19 +6.3837765868e-16 5.1100000000e-04 5.1099893000e-04 0.0000e+00 1.0000e+00
       50  1    1    2    0    0 -2.7201765027e-02 +8.4484879854e-02 +6.8051142732e+01 6.8051200796e+01 4.9935713700e-03 0.0000e+00 0.0000e+00
       11  1    1    2    0    0 -3.4411050102e-03 +2.0415259125e-03 +1.5538343543e-02 1.6053357023e-02 5.1099893000e-04 0.0000e+00 1.0000e+00
<vert_displacement>
173.83752179201585
</vert_displacement>
</event>
<event>
 4   1200 +8.5212000e+10 9.55668200e-03 7.81665300e-03            nan
       50 -1    0    0    0    0 +1.4775815289e-02 +2.4165555789e-02 +9.6992959695e+00 9.6993386134e+00 4.9935713700e-03 0.0000e+00 0.0000e+00
       11 -1    0    0    0    0 +6.9765959643e-19 +1.1410085717e-18 +4.5796504486e-16 5.1100000000e-04 5.1099893000e-04 0.0000e+00 1.0000e+00
       50  1    1    2    0    0 +1.0004117423e-02 +1.7326825620e-02 +9.6339091593e+00 9.6339312291e+00 4.9935713700e-03 0.0000e+00 0.0000e+00
       11  1    1    2    0    0 +4.7716978658e-03 +6.8387301693e-03 +6.5386810136e-02 6.5918384314e-02 5.1099893000e-04 0.0000e+00 1.0000e+00
<vert_displacement>
90.561031022386445
</vert_displacement>
</event>
<event>
 4   1200 +8.5212000e+10 3.81654800e-02 7.81665300e-03            nan
       50 -1    0    0    0    0 +3.3573098251e-02 -1.2520991938e-02 +1.6997518165e+01 1.6997556666e+01 4.9935713700e-03 0.0000e+00 0.0000e+00
       11 -1    0    0    0    0 +5.0984495881e-18 -1.9014523388e-18 +2.5812627968e-15 5.1100000000e-04 5.1099893000e-04 0.0000e+00 1.0000e+00
       50  1    1    2    0    0 +6.6015717130e-02 -2.4516699998e-02 +1.5456689635e+01 1.5456850862e+01 4.9935713700e-03 0.0000e+00 0.0000e+00
       11  1    1    2    0    0 -3.2442618880e-02 +1.1995708060e-02 +1.5408285293e+00 1.5412168045e+00 5.1099893000e-04 0.0000e+00 1.0000e+00
<vert_displacement>
413.91995133787520
</vert_displacement>
</event>
<event>
 4   1200 +8.5212000e+10 1.04978700e-02 7.81665300e-03            nan
       50 -1    0    0    0    0 -1.8800864906e-02 +6.0687781304e-03 +5.5049249914e+00 5.5049627064e+00 4.9935713700e-03 0.0000e+00 0.0000e+00
       11 -1    0    0    0    0 -1.6588683205e-19 +5.3547024751e-20 +4.8571944537e-17 5.1100000000e-04 5.1099893000e-04 0.0000e+00 1.0000e+00
       50  1    1    2    0    0 -1.0812789133e-02 +1.1074386477e-02 +5.4201939709e+00 5.4202183698e+00 4.9935713700e-03 0.0000e+00 0.0000e+00
       11  1    1    2    0    0 -7.9880757733e-03 -5.0056083464e-03 +8.4731020417e-02 8.5255336550e-02 5.1099893000e-04 0.0000e+00 1.0000e+00
<vert_displacement>
232.85269185247265
</vert_displacement>
</event>
<event>
 4   1200 +8.5212000e+10 1.32426800e-02 7.81665300e-03            nan
       50 -1    0    0    0    0 -6.3672366658e-03 +4.7957390731e-03 +2.6119801626e+00 2.6119970992e+00 4.9935713700e-03 0.0000e+00 0.0000e+00
       11 -1    0    0    0    0 -1.0994682684e-19 +8.2810852039e-20 +4.5102600344e-17 5.1100000000e-04 5.1099893000e-04 0.0000e+00 1.0000e+00
       50  1    1    2    0    0 -1.8128463541e-02 +2.7835774748e-03 +2.4552416705e+00 2.4553152518e+00 4.9935713700e-03 0.0000e+00 0.0000e+00
       11  1    1    2    0    0 +1.1761226875e-02 +2.0121615983e-03 +1.5673849204e-01 1.5719284735e-01 5.1099893000e-04 0.0000e+00 1.0000e+00
<vert_displacement>
476.83422288422520
</vert_displacement>
</event>
<event>
 4   1200 +8.5212000e+10 1.32926700e-02 7.81665300e-03            nan
       50 -1    0    0    0    0 -1.6619960520e-02 -1.1678567065e-02 +6.9895800242e+00 6.9896113241e+00 4.9935713700e-03 0.0000e+00 0.0000e+00
       11 -1    0    0    0    0 -1.5674399974e-18 -1.1014137554e-18 +6.5919213718e-16 5.1100000000e-04 5.1099893000e-04 0.0000e+00 1.0000e+00
       50  1    1    2    0    0 -2.2077444386e-02 -5.6651621704e-04 +6.8377729074e+00 6.8378103954e+00 4.9935713700e-03 0.0000e+00 0.0000e+00
       11  1    1    2    0    0 +5.4574838656e-03 -1.1112050848e-02 +1.5180711679e-01 1.5231192873e-01 5.1099893000e-04 0.0000e+00 1.0000e+00
<vert_displacement>
323.71836511849256
</vert_displacement>
</event>
<event>
 4   1200 +8.5212000e+10 3.96237600e-02 7.81665300e-03            nan
       50 -1    0    0    0    0 +1.3917646300e-02 +1.7594811796e-02 +9.1575999214e+00 9.1576287615e+00 4.9935713700e-03 0.0000e+00 0.0000e+00
       11 -1    0    0    0    0 +2.1091286389e-19 +2.6663791172e-19 +1.3877746166e-16 5.1100000000e-04 5.1099893000e-04 0.0000e+00 1.0000e+00
       50  1    1    2    0    0 -2.0477050904e-02 +3.5289604103e-02 +1.9363659283e+00 1.9368021607e+00 4.9935713700e-03 0.0000e+00 0.0000e+00
       11  1    1    2    0    0 +3.4394697204e-02 -1.7694792306e-02 +7.2212339931e+00 7.2213376008e+00 5.1099893000e-04 0.0000e+00 1.0000e+00
<vert_displacement>
495.02545122536083
</vert_displacement>
</event>
<event>
 4   1200 +8.5212000e+10 2.58009600e-02 7.81665300e-03            nan
       50 -1    0    0    0    0 -3.4773121971e-03 +1.0941968989e-02 +2.4093154004e+01 2.4093157257e+01 4.9935713700e-03 0.0000e+00 0.0000e+00
       11 -1    0    0    0    0 -4.1461075758e-19 +1.3046450231e-18 +2.8727017500e-15 5.1100000000e-04 5.1099893000e-04 0.0000e+00 1.0000e+00
       50  1    1    2    0    0 -6.9139029466e-03 -1.4416432203e-02 +2.3448948344e+01 2.3448954326e+01 4.9935713700e-03 0.0000e+00 0.0000e+00
       11  1    1    2    0    0 +3.4365907494e-03 +2.5358401192e-02 +6.4420566040e-01 6.4471393089e-01 5.1099893000e-04 0.0000e+00 1.0000e+00
<vert_displacement>
450.01497013843004
</vert_displacement>
</event>
<event>
 4   1200 +8.5212000e+10 2.42911200e-02 7.81665300e-03            nan
       50 -1    0    0    0    0 -3.0501463491e-02 +1.3149223212e-02 +1.9788393239e+01 1.9788421745e+01 4.9935713700e-03 0.0000e+00 0.0000e+00
       11 -1    0    0    0    0 -1.6684929628e-18 +7.1928963021e-19 +1.0824659241e-15 5.1100000000e-04 5.1099893000e-04 0.0000e+00 1.0000e+00
       50  1    1    2    0    0 -4.0809688500e-02 -8.2052839476e-03 +1.9219016240e+01 1.9219061968e+01 4.9935713700e-03 0.0000e+00 0.0000e+00
       11  1    1    2    0    0 +1.0308225009e-02 +2.1354507159e-02 +5.6937699891e-01 5.6987077701e-01 5.1099893000e-04 0.0000e+00 1.0000e+00
<vert_displacement>
346.89162364361283
</vert_displacement>
</event>
<event>
 4   1200 +8.5212000e+10 1.67048300e-02 7.81665300e-03            nan
       50 -1    0    0    0    0 +1.9306934076e-02 -3.0142466976e-03 +6.3871679358e+00 6.3871997792e+00 4.9935713700e-03 0.0000e+00 0.0000e+00
       11 -1    0    0    0    0 -3.1461864213e-19 +4.9119047040e-20 -1.0408292146e-16 5.1100000000e-04 5.1099893000e-04 0.0000e+00 1.0000e+00
       50  1    1    2    0    0 +2.5514692878e-02 +1.1434167777e-02 +6.1279289478e+00 6.1279947670e+00 4.9935713700e-03 0.0000e+00 0.0000e+00
       11  1    1    2    0    0 -6.2077588022e-03 -1.4448414474e-02 +2.5923898796e-01 2.5971601212e-01 5.1099893000e-04 0.0000e+00 1.0000e+00
<vert_displacement>
103.34096037555818
</vert_displacement>
</event>
<event>
 4   1200 +8.5212000e+10 9.40434600e-03 7.81665300e-03            nan
       50 -1    0    0    0    0 -4.2393142321e-02 -2.2867912360e-02 +1.3004779891e+01 1.3004870052e+01 4.9935713700e-03 0.0000e+00 0.0000e+00
       11 -1    0    0    0    0 -3.7095712699e-18 -2.0010347440e-18 +1.1379707947e-15 5.1100000000e-04 5.1099893000e-04 0.0000e+00 1.0000e+00
       50  1    1    2    0    0 -3.6038504941e-02 -2.7824664674e-02 +1.2942349735e+01 1.2942430784e+01 4.9935713700e-03 0.0000e+00 0.0000e+00
       11  1    1    2    0    0 -6.3546373807e-03 +4.9567523138e-03 +6.2430156121e-02 6.2950268649e-02 5.1099893000e-04 0.0000e+00 1.0000e+00
<vert_displacement>
284.96109202906513
</vert_displacement>
</event>
<event>
 4   1200 +8.5212000e+10 5.32061700e-03 7.81665300e-03            nan
       50 -1    0    0    0    0 +9.0516772874e-03 +1.0020525351e-02 +5.1784035700e+00 5.1784235838e+00 4.9935713700e-03 0.0000e+00 0.0000e+00
       11 -1    0    0    0    0 -1.0066999141e-18 -1.1144522379e-18 -5.7592623592e-16 5.1100000000e-04 5.1099893000e-04 0.0000e+00 1.0000e+00
       50  1    1    2    0    0 +8.3370772476e-03 +1.1708469966e-02 +5.1750984978e+00 5.1751208674e+00 4.9935713700e-03 0.0000e+00 0.0000e+00
       11  1    1    2    0    0 +7.1460003977e-04 -1.6879446147e-03 +3.3050722081e-03 3.8137163563e-03 5.1099893000e-04 0.0000e+00 1.0000e+00
<vert_displacement>
388.23879632450320
</vert_displacement>
</event>
<event>
 4   1200 +8.5212000e+10 1.61234100e-02 7.81665300e-03            nan
       50 -1    0    0    0    0 +9.8590889983e-03 +9.2527566369e-05 +5.2649357889e+00 5.2649473888e+00 4.9935713700e-03 0.0000e+00 0.0000e+00
       11 -1    0    0    0    0 -1.8710943435e-18 -1.7560223473e-20 -9.9919897011e-16 5.1100000000e-04 5.1099893000e-04 0.0000e+00 1.0000e+00
       50  1    1    2    0    0 +2.0568986730e-02 +1.0597930675e-02 +5.0238337228e+00 5.0238894902e+00 4.9935713700e-03 0.0000e+00 0.0000e+00
       11  1    1    2    0    0 -1.0709897732e-02 -1.0505403108e-02 +2.4110206606e-01 2.4156889862e-01 5.1099893000e-04 0.0000e+00 1.0000e+00
<vert_displacement>
100.78832298515022
</vert_displacement>
</event>
<event>
 4   1200 +8.5212000e+10 1.67181500e-02 7.81665300e-03            nan
       50 -1    0    0    0    0 -3.3628478675e-02 +2.4232659372e-02 +1.0331431264e+01 1.0331515620e+01 4.9935713700e-03 0.0000e+00 0.0000e+00
       11 -1    0    0    0    0 -1.3325560750e-18 +9.6023902158e-19 +4.0939144550e-16 5.1100000000e-04 5.1099893000e-04 0.0000e+00 1.0000e+00
       50  1    1    2    0    0 -4.5765873358e-02 +3.2926974133e-02 +1.0075946352e+01 1.0076105326e+01 4.9935713700e-03 0.0000e+00 0.0000e+00
       11  1    1    2    0    0 +1.2137394683e-02 -8.6943147604e-03 +2.5548491171e-01 2.5592129394e-01 5.1099893000e-04 0.0000e+00 1.0000e+00
<vert_displacement>
487.34246510046285
</vert_displacement>
</event>
<event>
 4   1200 +8.5212000e+10 2.19908400e-02 7.81665300e-03            nan
       50 -1    0    0    0    0 +1.1006119447e-02 +1.0890894632e-03 +7.4648687683e+00 7.4648786316e+00 4.9935713700e-03 0.0000e+00 0.0000e+00
       11 -1    0    0    0    0 -1.4629781925e-18 -1.4476620412e-19 -9.9226073920e-16 5.1100000000e-04 5.1099893000e-04 0.0000e+00 1.0000e+00
       50  1    1    2    0    0 -9.7742671650e-03 -6.4463530468e-03 +6.9851491370e+00 6.9851607350e+00 4.9935713700e-03 0.0000e+00 0.0000e+00
       11  1    1    2    0    0 +2.0780386612e-02 +7.5354425100e-03 +4.7971963127e-01 4.8022889658e-01 5.1099893000e-04 0.0000e+00 1.0000e+00
<vert_displacement>
241.36942294509501
</vert_displacement>
</event>
<event>
 4   1200 +8.5212000e+10 1.16855600e-02 7.81665300e-03            nan
       50 -1    0    0    0    0 +7.9755539356e-03 -4.3586939794e-03 +2.8071138172e+00 2.8071329726e+00 4.9935713700e-03 0.0000e+00 0.0000e+00
       11 -1    0    0    0    0 +1.1040197235e-18 -6.0335421975e-19 +3.8857602183e-16 5.1100000000e-04 5.1099893000e-04 0.0000e+00 1.0000e+00
       50  1    1    2    0    0 +1.2880048921e-02 -1.3362417685e-02 +2.6931904555e+00 2.6932590324e+00 4.9935713700e-03 0.0000e+00 0.0000e+00
       11  1    1    2    0    0 -4.9044949855e-03 +9.0037237053e-03 +1.1392336164e-01 1.1438494027e-01 5.1099893000e-04 0.0000e+00 1.0000e+00
<vert_displacement>
32.814793928590923
</vert_displacement>
</event>
<event>
 4   1200 +8.5212000e+10 2.27415900e-02 7.81665300e-03            nan
       50 -1    0    0    0    0 +6.5673544214e-02 -4.0768694634e-03 +3.3062318694e+01 3.3062384547e+01 4.9935713700e-03 0.0000e+00 0.0000e+00
       11 -1    0    0    0    0 -8.2974190686e-18 +5.1508556194e-19 -4.1772058576e-15 5.1100000000e-04 5.1099893000e-04 0.0000e+00 1.0000e+00
       50  1    1    2    0    0 +7.8770270461e-02 +1.3139747069e-02 +3.2573403840e+01 3.2573502116e+01 4.9935713700e-03 0.0000e+00 0.0000e+00
       11  1    1    2    0    0 -1.3096726247e-02 -1.7216616533e-02 +4.8891485334e-01 4.8939343177e-01 5.1099893000e-04 0.0000e+00 1.0000e+00
<vert_displacement>
144.81430122538291
</vert_displacement>
</event>
<event>
 4   1200 +8.5212000e+10 8.58869900e-03 7.81665300e-03            nan
       50 -1    0    0    0    0 +4.1869458619e-02 +5.2652836060e-02 +2.1956060636e+01 2.1956164259e+01 4.9935713700e-03 0.0000e+00 0.0000e+00
       11 -1    0    0    0    0 +1.7995753719e-18 +2.2630516409e-18 +9.4368514156e-16 5.1100000000e-04 5.1099893000e-04 0.0000e+00 1.0000e+00
       50  1    1    2    0    0 +4.8752297255e-02 +5.2100921343e-02 +2.1908164092e+01 2.1908280857e+01 4.9935713700e-03 0.0000e+00 0.0000e+00
       11  1    1    2    0    0 -6.8828386363e-03 +5.5191471707e-04 +4.7896543652e-02 4.8394401446e-02 5.1099893000e-04 0.0000e+00 1.0000e+00
<vert_displacement>
276.27198430934970
</vert_displacement>
</event>
<event>
 4   1200 +8.5212000e+10 5.38841300e-03 7.81665300e-03            nan
       50 -1    0    0    0    0 +7.9745157671e-03 +4.2455541740e-03 +2.9539996046e+00 2.9540176400e+00 4.9935713700e-03 0.0000e+00 0.0000e+00
       11 -1    0    0    0    0 -2.3414889757e-19 -1.2465858222e-19 -8.6735768169e-17 5.1100000000e-04 5.1099893000e-04 0.0000e+00 1.0000e+00
       50  1    1    2    0    0 +9.6375165773e-03 +5.3788339465e-03 +2.9499762643e+00 2.9500011372e+00 4.9935713700e-03 0.0000e+00 0.0000e+00
       11  1    1    2    0    0 -1.6630008101e-03 -1.1332797726e-03 +4.0233402865e-03 4.5275028111e-03 5.1099893000e-04 0.0000e+00 1.0000e+00
<vert_displacement>
386.01462762501529
</vert_displacement>
</event>
<event>
 4   1200 +8.5212000e+10 2.11888400e-02 7.81665300e-03            nan
       50 -1    0    0    0    0 +3.2963353593e-02 +1.1313472643e-02 +1.6678610160e+01 1.6678647319e+01 4.9935713700e-03 0.0000e+00 0.0000e+00
       11 -1    0    0    0    0 -6.8569476640e-19 -2.3533979816e-19 -3.4694393778e-16 5.1100000000e-04 5.1099893000e-04 0.0000e+00 1.0000e+00
       50  1    1    2    0    0 +3.2186967653e-02 +3.1616547257e-02 +1.6252794757e+01 1.6252858147e+01 4.9935713700e-03 0.0000e+00 0.0000e+00
       11  1    1    2    0    0 +7.7638593943e-04 -2.0303074614e-02 +4.2581540324e-01 4.2630017168e-01 5.1099893000e-04 0.0000e+00 1.0000e+00
<vert_displacement>
444.66023363426223
</vert_displacement>
</event>
<event>
 4   1200 +8.5212000e+10 1.63227100e-02 7.81665300e-03            nan
       50 -1    0    0    0    0 -1.2703097128e-02 +7.6024427866e-02 +3.2459040156e+01 3.2459132056e+01 4.9935713700e-03 0.0000e+00 0.0000e+00
       11 -1    0    0    0    0 +1.0373524360e-18 -6.2082596589e-18 -2.6506499979e-15 5.1100000000e-04 5.1099893000e-04 0.0000e+00 1.0000e+00
       50  1    1    2    0    0 +7.8484770285e-04 +8.3345628227e-02 +3.2220980320e+01 3.2221088511e+01 4.9935713700e-03 0.0000e+00 0.0000e+00
       11  1    1    2    0    0 -1.3487944830e-02 -7.3212003613e-03 +2.3805983576e-01 2.3855454544e-01 5.1099893000e-04 0.0000e+00 1.0000e+00
<vert_displacement>
199.85405823929520
</vert_displacement>
</event>
<event>
 4   1200 +8.5212000e+10 8.78135500e-03 7.81665300e-03            nan
       50 -1    0    0    0    0 +7.6920732763e-03 -9.4537328001e-04 +4.3079152341e+00 4.3079250994e+00 4.9935713700e-03 0.0000e+00 0.0000e+00
       11 -1    0    0    0    0 -4.2125466663e-19 +5.1773155508e-20 -2.3592201096e-16 5.1100000000e-04 5.1099893000e-04 0.0000e+00 1.0000e+00
       50  1    1    2    0    0 +4.8988673346e-03 -7.6333925166e-03 +4.2562357964e+00 4.2562483900e+00 4.9935713700e-03 0.0000e+00 0.0000e+00
       11  1    1    2    0    0 +2.7932059417e-03 +6.6880192366e-03 +5.1679437766e-02 5.2187709362e-02 5.1099893000e-04 0.0000e+00 1.0000e+00
<vert_displacement>
10.132630919804564
</vert_displacement>
</event>
<event>
 4   1200 +8.5212000e+10 7.89227900e-03 7.81665300e-03            nan
       50 -1    0    0    0    0 -2.7895546478e-02 +5.5638895775e-03 +8.6234083866e+00 8.6234567464e+00 4.9935713700e-03 0.0000e+00 0.0000e+00
       11 -1    0    0    0    0 +9.2029626836e-19 -1.8355714307e-19 -2.8449310233e-16 5.1100000000e-04 5.1099893000e-04 0.0000e+00 1.0000e+00
       50  1    1    2    0    0 -2.5431796784e-02 -1.0365074360e-04 +8.5867127102e+00 8.5867518242e+00 4.9935713700e-03 0.0000e+00 0.0000e+00
       11  1    1    2    0    0 -2.4637496946e-03 +5.6675403211e-03 +3.6695676461e-02 3.7215922220e-02 5.1099893000e-04 0.0000e+00 1.0000e+00
<vert_displacement>
173.50292718807944
</vert_displacement>
</event>
<event>
 4   1200 +8.5212000e+10 1.31810600e-02 7.81665300e-03            nan
       50 -1    0    0    0    0 +1.5015220154e-02 -1.0323431960e-02 +8.3102424095e+00 8.3102638870e+00 4.9935713700e-03 0.0000e+00 0.0000e+00
       11 -1    0    0    0    0 -5.2657047626e-19 +3.6203361845e-19 -2.9143284338e-16 5.1100000000e-04 5.1099893000e-04 0.0000e+00 1.0000e+00
       50  1    1    2    0    0 +9.6002798645e-03 +9.2022444402e-04 +8.1620025025e+00 8.1620097279e+00 4.9935713700e-03 0.0000e+00 0.0000e+00
       11  1    1    2    0    0 +5.4149402892e-03 -1.1243656404e-02 +1.4823990705e-01 1.4876515906e-01 5.1099893000e-04 0.0000e+00 1.0000e+00
<vert_displacement>
428.13395065345014
</vert_displacement>
</event>
<event>
 4   1200 +8.5212000e+10 2.43845300e-02 7.81665300e-03            nan
       50 -1    0    0    0    0 -9.8227351337e-03 -9.8310437976e-03 +1.0747144538e+01 1.0747154683e+01 4.9935713700e-03 0.0000e+00 0.0000e+00
       11 -1    0    0    0    0 +2.9807605234e-19 +2.9832818311e-19 -3.2612774082e-16 5.1100000000e-04 5.1099893000e-04 0.0000e+00 1.0000e+00
       50  1    1    2    0    0 -2.2242880176e-02 +1.0751669157e-02 +1.0157268451e+01 1.0157299723e+01 4.9935713700e-03 0.0000e+00 0.0000e+00
       11  1    1    2    0    0 +1.2420145042e-02 -2.0582712954e-02 +5.8987608699e-01 5.9036596040e-01 5.1099893000e-04 0.0000e+00 1.0000e+00
<vert_displacement>
349.60644864656740
</vert_displacement>
</event>
<event>
 4   1200 +8.5212000e+10 1.74776100e-02 7.81665300e-03            nan
       50 -1    0    0    0    0 +4.1267148856e-03 -1.2613031526e-03 +1.1198736480e+01 1.1198738425e+01 4.9935713700e-03 0.0000e+00 0.0000e+00
       11 -1    0    0    0    0 +6.6481223296e-20 -2.0319546869e-20 +1.8041122811e-16 5.1100000000e-04 5.1099893000e-04 0.0000e+00 1.0000e+00
       50  1    1    2    0    0 +1.7290151626e-02 -1.1452704151e-02 +1.0917129465e+01 1.0917150306e+01 4.9935713700e-03 0.0000e+00 0.0000e+00
       11  1    1    2    0    0 -1.3163436741e-02 +1.0191400998e-02 +2.8160701448e-01 2.8209911813e-01 5.1099893000e-04 0.0000e+00 1.0000e+00
<vert_displacement>
239.20515465332247
</vert_displacement>
</event>
<event>
 4   1200 +8.5212000e+10 1.35296500e-02 7.81665300e-03            nan
       50 -1    0    0    0    0 +6.4930407527e-02 -7.4428491609e-02 +3.3531275307e+01 3.3531421148e+01 4.9935713700e-03 0.0000e+00 0.0000e+00
       11 -1    0    0    0    0 -9.3518096814e-18 +1.0719801629e-17 -4.8294492054e-15 5.1100000000e-04 5.1099893000e-04 0.0000e+00 1.0000e+00
       50  1    1    2    0    0 +6.1789829527e-02 -8.6333044742e-02 +3.3375818895e+01 3.3375988124e+01 4.9935713700e-03 0.0000e+00 0.0000e+00
       11  1    1    2    0    0 +3.1405780002e-03 +1.1904553133e-02 +1.5545641143e-01 1.5594402390e-01 5.1099893000e-04 0.0000e+00 1.0000e+00
<vert_displacement>
386.41575724408148
</vert_displacement>
</event>
<event>
 4   1200 +8.5212000e+10 2.67096100e-02 7.81665300e-03            nan
       50 -1    0    0    0    0 +2.6733349948e-02 -9.6380291747e-03 +2.2320720942e+01 2.2320739590e+01 4.9935713700e-03 0.0000e+00 0.0000e+00
       11 -1    0    0    0    0 +5.1526038098e-19 -1.8576402112e-19 +4.3021107337e-16 5.1100000000e-04 5.1099893000e-04 0.0000e+00 1.0000e+00
       50  1    1    2    0    0 +5.4849505671e-03 -2.5820226522e-02 +2.1625390797e+01 2.1625407483e+01 4.9935713700e-03 0.0000e+00 0.0000e+00
       11  1    1    2    0    0 +2.1248399381e-02 +1.6182197347e-02 +6.9533014519e-01 6.9584310726e-01 5.1099893000e-04 0.0000e+00 1.0000e+00
<vert_displacement>
333.97099620535442
</vert_displacement>
</event>
<event>
 4   1200 +8.5212000e+10 9.41188500e-03 7.81665300e-03            nan
       50 -1    0    0    0    0 +1.7384501733e-02 +2.4054556334e-02 +1.0689330696e+01 1.0689373065e+01 4.9935713700e-03 0.0000e+00 0.0000e+00
       11 -1    0    0    0    0 -1.4670457583e-19 -2.0299192569e-19 -9.0205273056e-17 5.1100000000e-04 5.1099893000e-04 0.0000e+00 1.0000e+00
       50  1    1    2    0    0 +2.4459961444e-02 +2.7396840043e-02 +1.0626662727e+01 1.0626727367e+01 4.9935713700e-03 0.0000e+00 0.0000e+00
       11  1    1    2    0    0 -7.0754597111e-03 -3.3422837087e-03 +6.2667969526e-02 6.3156698100e-02 5.1099893000e-04 0.0000e+00 1.0000e+00
<vert_displacement>
405.68406787451602
</vert_displacement>
</event>
<event>
 4   1200 +8.5212000e+10 2.68825800e-02 7.81665300e-03            nan
       50 -1    0    0    0    0 -2.5508488447e-02 +6.1412373815e-02 +2.7870246673e+01 2.7870326455e+01 4.9935713700e-03 0.0000e+00 0.0000e+00
       11 -1    0    0    0    0 +1.0542436913e-18 -2.5381201161e-18 -1.1518531092e-15 5.1100000000e-04 5.1099893000e-04 0.0000e+00 1.0000e+00
       50  1    1    2    0    0 -4.2881012326e-02 +4.0549491100e-02 +2.7169930817e+01 2.7169995374e+01 4.9935713700e-03 0.0000e+00 0.0000e+00
       11  1    1    2    0    0 +1.7372523879e-02 +2.0862882714e-02 +7.0031585561e-01 7.0084208150e-01 5.1099893000e-04 0.0000e+00 1.0000e+00
<vert_displacement>
110.39513481796737
</vert_displacement>
</event>
<event>
 4   1200 +8.5212000e+10 3.84612700e-02 7.81665300e-03            nan
       50 -1    0    0    0    0 +2.8634317378e-02 +1.1262234883e-02 +3.4565193411e+01 3.4565207467e+01 4.9935713700e-03 0.0000e+00 0.0000e+00
       11 -1    0    0    0    0 +6.7829704543e-19 +2.6678270501e-19 +8.1878915624e-16 5.1100000000e-04 5.1099893000e-04 0.0000e+00 1.0000e+00
       50  1    1    2    0    0 +6.4399371396e-02 +1.5279702742e-03 +3.3078096470e+01 3.3078159571e+01 4.9935713700e-03 0.0000e+00 0.0000e+00
       11  1    1    2    0    0 -3.5765054019e-02 +9.7342646087e-03 +1.4870969412e+00 1.4875588959e+00 5.1099893000e-04 0.0000e+00 1.0000e+00
<vert_displacement>
78.960420184274781
</vert_displacement>
</event>
<event>
 4   1200 +8.5212000e+10 1.26055100e-02 7.81665300e-03            nan
       50 -1    0    0    0    0 +2.4024126662e-02 -1.6891207236e-02 +7.3759834889e+00 7.3760436438e+00 4.9935713700e-03 0.0000e+00 0.0000e+00
       11 -1    0    0    0    0 -9.0401256986e-20 +6.3560535939e-20 -2.7755355617e-17 5.1100000000e-04 5.1099893000e-04 0.0000e+00 1.0000e+00
       50  1    1    2    0    0 +2.5230191468e-02 -5.1281487846e-03 +7.2424923877e+00 7.2425398710e+00 4.9935713700e-03 0.0000e+00 0.0000e+00
       11  1    1    2    0    0 -1.2060648054e-03 -1.1763058451e-02 +1.3349110117e-01 1.3401477287e-01 5.1099893000e-04 0.0000e+00 1.0000e+00
<vert_displacement>
431.11329256789440
</vert_displacement>
</event>
<event>
 4   1200 +8.5212000e+10 1.70812100e-02 7.81665300e-03            nan
       50 -1    0    0    0    0 -7.7958290192e-03 -1.5210587331e-02 +6.5781223190e+00 6.5781464195e+00 4.9935713700e-03 0.0000e+00 0.0000e+00
       11 -1    0    0    0    0 +3.5360434863e-19 +6.8992403659e-19 -2.9837143068e-16 5.1100000000e-04 5.1099893000e-04 0.0000e+00 1.0000e+00
       50  1    1    2    0    0 +7.9537704925e-03 -9.2097045569e-03 +6.3057212338e+00 6.3057349528e+00 4.9935713700e-03 0.0000e+00 0.0000e+00
       11  1    1    2    0    0 -1.5749599512e-02 -6.0008827742e-03 +2.7240108521e-01 2.7292246669e-01 5.1099893000e-04 0.0000e+00 1.0000e+00
<vert_displacement>
491.86744427519642
</vert_displacement>
</event>
<event>
 4   1200 +8.5212000e+10 2.82820100e-02 7.81665300e-03            nan
       50 -1    0    0    0    0 +2.1925001866e-02 +1.3664468134e-02 +1.4072835715e+01 1.4072860314e+01 4.9935713700e-03 0.0000e+00 0.0000e+00
       11 -1    0    0    0    0 +8.7565403947e-19 +5.4573982670e-19 +5.6204945915e-16 5.1100000000e-04 5.1099893000e-04 0.0000e+00 1.0000e+00
       50  1    1    2    0    0 +3.8599033207e-02 -8.4133130515e-03 +1.3268497346e+01 1.3268557097e+01 4.9935713700e-03 0.0000e+00 0.0000e+00
       11  1    1    2    0    0 -1.6674031341e-02 +2.2077781185e-02 +8.0433836884e-01 8.0481421735e-01 5.1099893000e-04 0.0000e+00 1.0000e+00
<vert_displacement>
409.59835525614619
</vert_displacement>
</event>
<event>
 4   1200 +8.5212000e+10 1.26861900e-02 7.81665300e-03            nan
       50 -1    0    0    0    0 -8.5200435894e-03 +9.1797835491e-03 +8.8759389850e+00 8.8759492259e+00 4.9935713700e-03 0.0000e+00 0.0000e+00
       11 -1    0    0    0    0 -8.9252855939e-19 +9.6164050109e-19 +9.2981085747e-16 5.1100000000e-04 5.1099893000e-04 0.0000e+00 1.0000e+00
       50  1    1    2    0    0 -1.7063179737e-02 +1.2435361123e-03 +8.7407918938e+00 8.7408100634e+00 4.9935713700e-03 0.0000e+00 0.0000e+00
       11  1    1    2    0    0 +8.5431361481e-03 +7.9362474368e-03 +1.3514709124e-01 1.3565016251e-01 5.1099893000e-04 0.0000e+00 1.0000e+00
<vert_displacement>
426.68525138790210
</vert_displacement>
</event>
<event>
 4   1200 +8.5212000e+10 8.01868000e-03 7.81665300e-03            nan
       50 -1    0    0    0    0 +3.2990748249e-02 -1.2675549900e-02 +1.1519008239e+01 1.1519063539e+01 4.9935713700e-03 0.0000e+00 0.0000e+00
       11 -1    0    0    0    0 -2.1264200447e-18 +8.1700309377e-19 -7.4245815315e-16 5.1100000000e-04 5.1099893000e-04 0.0000e+00 1.0000e+00
       50  1    1    2    0    0 +2.7144309754e-02 -1.0090529581e-02 +1.1480379876e+01 1.1480417487e+01 4.9935713700e-03 0.0000e+00 0.0000e+00
       11  1    1    2    0    0 +5.8464384949e-03 -2.5850203189e-03 +3.8628363057e-02 3.9157052053e-02 5.1099893000e-04 0.0000e+00 1.0000e+00
<vert_displacement>
462.31779499909021
</vert_displacement>
</event>
<event>
 4   1200 +8.5212000e+10 5.87606000e-02 7.81665300e-03            nan
       50 -1    0    0    0    0 +2.7240273933e-02 -1.3659501835e-02 +1.3662711864e+01 1.3662746760e+01 4.9935713700e-03 0.0000e+00 0.0000e+00
       11 -1    0    0    0    0 -3.3202819904e-19 +1.6649391284e-19 -1.6653303947e-16 5.1100000000e-04 5.1099893000e-04 0.0000e+00 1.0000e+00
       50  1    1    2    0    0 +7.0194823816e-02 +1.2855388790e-02 +7.7129785994e+00 7.7133103389e+00 4.9935713700e-03 0.0000e+00 0.0000e+00
       11  1    1    2    0    0 -4.2954549883e-02 -2.6514890625e-02 +5.9497332645e+00 5.9499474210e+00 5.1099893000e-04 0.0000e+00 1.0000e+00
<vert_displacement>
319.15010918267933
</vert_displacement>
</event>
<event>
 4   1200 +8.5212000e+10 2.47482300e-02 7.81665300e-03            nan
       50 -1    0    0    0    0 +4.9739024727e-02 -7.6918740182e-03 +2.1809276241e+01 2.1809334887e+01 4.9935713700e-03 0.0000e+00 0.0000e+00
       11 -1    0    0    0    0 +2.0889066572e-18 -3.2303823670e-19 +9.1593155634e-16 5.1100000000e-04 5.1099893000e-04 0.0000e+00 1.0000e+00
       50  1    1    2    0    0 +3.2275860962e-02 +1.0622601662e-02 +2.1218386342e+01 2.1218414137e+01 4.9935713700e-03 0.0000e+00 0.0000e+00
       11  1    1    2    0    0 +1.7463163765e-02 -1.8314475680e-02 +5.9088989848e-01 5.9143175038e-01 5.1099893000e-04 0.0000e+00 1.0000e+00
<vert_displacement>
121.71855943027931
</vert_displacement>
</event>
<event>
 4   1200 +8.5212000e+10 3.19432300e-02 7.81665300e-03            nan
       50 -1    0    0    0    0 -1.5741490984e-02 -3.5840927392e-02 +1.9826573578e+01 1.9826612851e+01 4.9935713700e-03 0.0000e+00 0.0000e+00
       11 -1    0    0    0    0 -1.2120213788e-19 -2.7595842274e-19 +1.5265536834e-16 5.1100000000e-04 5.1099893000e-04 0.0000e+00 1.0000e+00
       50  1    1    2    0    0 -1.0675963343e-02 -6.5246726142e-02 +1.8799194763e+01 1.8799311684e+01 4.9935713700e-03 0.0000e+00 0.0000e+00
       11  1    1    2    0    0 -5.0655276413e-03 +2.9405798750e-02 +1.0273788150e+00 1.0278121673e+00 5.1099893000e-04 0.0000e+00 1.0000e+00
<vert_displacement>
108.87135178808253
</vert_displacement>
</event>
<event>
 4   1200 +8.5212000e+10 1.88773300e-02 7.81665300e-03            nan
       50 -1    0    0    0    0 +6.1750665752e-02 -2.0449729936e-02 +1.9502753190e+01 1.9502862310e+01 4.9935713700e-03 0.0000e+00 0.0000e+00
       11 -1    0    0    0    0 +6.1955898452e-18 -2.0517696058e-18 +1.9567571968e-15 5.1100000000e-04 5.1099893000e-04 0.0000e+00 1.0000e+00
       50  1    1    2    0    0 +7.8852954383e-02 -1.8651316007e-02 +1.9172820280e+01 1.9172992153e+01 4.9935713700e-03 0.0000e+00 0.0000e+00
       11  1    1    2    0    0 -1.7102288631e-02 -1.7984139293e-03 +3.2993291001e-01 3.3038115685e-01 5.1099893000e-04 0.0000e+00 1.0000e+00
<vert_displacement>
19.948971591958227
</vert_displacement>
</event>
<event>
 4   1200 +8.5212000e+10 5.59201100e-02 7.81665300e-03            nan
       50 -1    0    0    0    0 +1.7465643660e-02 -2.0630345984e-02 +2.0834879395e+01 2.0834897528e+01 4.9935713700e-03 0.0000e+00 0.0000e+00
       11 -1    0    0    0    0 +8.1435078956e-20 -9.6190778124e-20 +9.7144432898e-17 5.1100000000e-04 5.1099893000e-04 0.0000e+00 1.0000e+00
       50  1    1    2    0    0 -2.6565809842e-02 +2.0787391527e-02 +1.7145418201e+01 1.7145452111e+01 4.9935713700e-03 0.0000e+00 0.0000e+00
       11  1    1    2    0    0 +4.4031453502e-02 -4.1417737511e-02 +3.6894611939e+00 3.6899564171e+00 5.1099893000e-04 0.0000e+00 1.0000e+00
<vert_displacement>
17.230027886106750
</vert_displacement>
</event>
<event>
 4   1200 +8.5212000e+10 2.51662100e-02 7.81665300e-03            nan
       50 -1    0    0    0    0 +2.7844370464e-02 -1.8501831556e-02 +1.1763728200e+01 1.1763776762e+01 4.9935713700e-03 0.0000e+00 0.0000e+00
       11 -1    0    0    0    0 -2.0858575040e-18 +1.3859959318e-18 -8.8123596729e-16 5.1100000000e-04 5.1099893000e-04 0.0000e+00 1.0000e+00
       50  1    1    2    0    0 +2.8038293456e-02 +7.0958209839e-03 +1.1134728839e+01 1.1134767521e+01 4.9935713700e-03 0.0000e+00 0.0000e+00
       11  1    1    2    0    0 -1.9392299204e-04 -2.5597652540e-02 +6.2899936053e-01 6.2952024121e-01 5.1099893000e-04 0.0000e+00 1.0000e+00
<vert_displacement>
287.27707042335828
</vert_displacement>
</event>
<event>
 4   1200 +8.5212000e+10 1.98482200e-02 7.81665300e-03            nan
       50 -1    0    0    0    0 +3.0047037948e-02 -4.7026488638e-02 +1.9107672516e+01 1.9107754663e+01 4.9935713700e-03 0.0000e+00 0.0000e+00
       11 -1    0    0    0    0 +8.0744693579e-19 -1.2637316935e-18 +5.1347595893e-16 5.1100000000e-04 5.1099893000e-04 0.0000e+00 1.0000e+00
       50  1    1    2    0    0 +2.4231669602e-02 -2.7638094848e-02 +1.8739542159e+01 1.8739578872e+01 4.9935713700e-03 0.0000e+00 0.0000e+00
       11  1    1    2    0    0 +5.8153683464e-03 -1.9388393790e-02 +3.6813035735e-01 3.6868679044e-01 5.1099893000e-04 0.0000e+00 1.0000e+00
<vert_displacement>
367.43743965801769
</vert_displacement>
</event>
<event>
 4   1200 +8.5212000e+10 1.10708700e-02 7.81665300e-03            nan
       50 -1    0    0    0    0 -1.8726808789e-02 -2.3549173941e-02 +9.6070336401e+00 9.6070820521e+00 4.9935713700e-03 0.0000e+00 0.0000e+00
       11 -1    0    0    0    0 -1.9341877102e-18 -2.4322629304e-18 +9.9225696210e-16 5.1100000000e-04 5.1099893000e-04 0.0000e+00 1.0000e+00
       50  1    1    2    0    0 -2.1713785514e-02 -3.2669242547e-02 +9.5105012609e+00 9.5105834699e+00 4.9935713700e-03 0.0000e+00 0.0000e+00
       11  1    1    2    0    0 +2.9869767258e-03 +9.1200686063e-03 +9.6532379243e-02 9.7009582225e-02 5.1099893000e-04 0.0000e+00 1.0000e+00
<vert_displacement>
62.008208147707670
</vert_displacement>
</event>
<event>
 4   1200 +8.5212000e+10 3.91719700e-02 7.81665300e-03            nan
       50 -1    0    0    0    0 +2.2500377995e-02 -6.3261672141e-02 +2.5992621957e+01 2.5992709159e+01 4.9935713700e-03 0.0000e+00 0.0000e+00
       11 -1    0    0    0    0 +3.4838264770e-19 -9.7950660401e-19 +4.0245450366e-16 5.1100000000e-04 5.1099893000e-04 0.0000e+00 1.0000e+00
       50  1    1    2    0    0 +2.2753426287e-02 -9.8253860497e-02 +2.4420300762e+01 2.4420509532e+01 4.9935713700e-03 0.0000e+00 0.0000e+00
       11  1    1    2    0    0 -2.5304829270e-04 +3.4992188356e-02 +1.5723211951e+00 1.5727106278e+00 5.1099893000e-04 0.0000e+00 1.0000e+00
<vert_displacement>
211.44059810483802
</vert_displacement>
</event>
<event>
 4   1200 +8.5212000e+10 8.74720400e-03 7.81665300e-03            nan
       50 -1    0    0    0    0 +9.1120087767e-03 -2.2027403157e-03 +2.9819800385e+00 2.9819989548e+00 4.9935713700e-03 0.0000e+00 0.0000e+00
       11 -1    0    0    0    0 -8.4812036171e-20 +2.0502492470e-20 -2.7755438464e-17 5.1100000000e-04 5.1099893000e-04 0.0000e+00 1.0000e+00
       50  1    1    2    0    0 +2.7457343961e-03 +1.4437808708e-03 +2.9306336411e+00 2.9306395373e+00 4.9935713700e-03 0.0000e+00 0.0000e+00
       11  1    1    2    0    0 +6.3662743807e-03 -3.6465211865e-03 +5.1346397373e-02 5.1870417478e-02 5.1099893000e-04 0.0000e+00 1.0000e+00
<vert_displacement>
437.91430023179396
</vert_displacement>
</event>
<event>
 4   1200 +8.5212000e+10 1.66458600e-02 7.81665300e-03            nan
       50 -1    0    0    0    0 -2.7812997943e-02 -1.9390791759e-03 +1.4337670552e+01 1.4337698529e+01 4.9935713700e-03 0.0000e+00 0.0000e+00
       11 -1    0    0    0    0 -9.0184818461e-19 -6.2875459820e-20 +4.6490501258e-16 5.1100000000e-04 5.1099893000e-04 0.0000e+00 1.0000e+00
       50  1    1    2    0    0 -1.7776255571e-02 -1.4591891992e-02 +1.4086551641e+01 1.4086571300e+01 4.9935713700e-03 0.0000e+00 0.0000e+00
       11  1    1    2    0    0 -1.0036742372e-02 +1.2652812816e-02 +2.5111891098e-01 2.5163822929e-01 5.1099893000e-04 0.0000e+00 1.0000e+00
<vert_displacement>
285.37160467994556
</vert_displacement>
</event>
<event>
 4   1200 +8.5212000e+10 1.19467300e-02 7.81665300e-03            nan
       50 -1    0    0    0    0 -2.2468869055e-02 -1.2295277443e-02 +8.2318409078e+00 8.2318822690e+00 4.9935713700e-03 0.0000e+00 0.0000e+00
       11 -1    0    0    0    0 -3.2955024436e-18 -1.8033447414e-18 +1.2073616950e-15 5.1100000000e-04 5.1099893000e-04 0.0000e+00 1.0000e+00
       50  1    1    2    0    0 -3.2999179522e-02 -1.2398045190e-02 +8.1148855279e+00 8.1149636305e+00 4.9935713700e-03 0.0000e+00 0.0000e+00
       11  1    1    2    0    0 +1.0530310466e-02 +1.0276774769e-04 +1.1695537995e-01 1.1742963858e-01 5.1099893000e-04 0.0000e+00 1.0000e+00
<vert_displacement>
89.610138671949372
</vert_displacement>
</event>
<event>
 4   1200 +8.5212000e+10 6.71534400e-03 7.81665300e-03            nan
       50 -1    0    0    0    0 +1.9912450911e-02 +1.7345493913e-02 +1.2338245329e+01 1.2338274600e+01 4.9935713700e-03 0.0000e+00 0.0000e+00
       11 -1    0    0    0    0 +1.3438222121e-18 +1.1705871921e-18 +8.3266536126e-16 5.1100000000e-04 5.1099893000e-04 0.0000e+00 1.0000e+00
       50  1    1    2    0    0 +1.5397722341e-02 +1.7571049186e-02 +1.2318493622e+01 1.2318516789e+01 4.9935713700e-03 0.0000e+00 0.0000e+00
       11  1    1    2    0    0 +4.5147285704e-03 -2.2555527312e-04 +1.9751707127e-02 2.0268811105e-02 5.1099893000e-04 0.0000e+00 1.0000e+00
<vert_displacement>
215.98781943001387
</vert_displacement>
</event>
<event>
 4   1200 +8.5212000e+10 7.91119200e-03 7.81665300e-03            nan
       50 -1    0    0    0    0 -3.1088129274e-02 -1.9353319060e-04 +1.0872776460e+01 1.0872822053e+01 4.9935713700e-03 0.0000e+00 0.0000e+00
       11 -1    0    0    0    0 -6.5472140807e-19 -4.0758426452e-21 +2.2898256278e-16 5.1100000000e-04 5.1099893000e-04 0.0000e+00 1.0000e+00
       50  1    1    2    0    0 -2.5278260144e-02 -2.4541606623e-03 +1.0835824468e+01 1.0835855381e+01 4.9935713700e-03 0.0000e+00 0.0000e+00
       11  1    1    2    0    0 -5.8098691300e-03 +2.2606274717e-03 +3.6951992252e-02 3.7477671581e-02 5.1099893000e-04 0.0000e+00 1.0000e+00
<vert_displacement>
32.659939819290983
</vert_displacement>
</event>
<event>
 4   1200 +8.5212000e+10 3.66467400e-02 7.81665300e-03            nan
       50 -1    0    0    0    0 -4.3408691712e-02 -3.4146885329e-03 +1.3928301825e+01 1.3928370782e+01 4.9935713700e-03 0.0000e+00 0.0000e+00
       11 -1    0    0    0    0 -3.0059479262e-18 -2.3645900186e-19 +9.6450153953e-16 5.1100000000e-04 5.1099893000e-04 0.0000e+00 1.0000e+00
       50  1    1    2    0    0 -2.7754160003e-02 -3.7605488335e-02 +1.2489777611e+01 1.2489866059e+01 4.9935713700e-03 0.0000e+00 0.0000e+00
       11  1    1    2    0    0 -1.5654531708e-02 +3.4190799802e-02 +1.4385242132e+00 1.4390157221e+00 5.1099893000e-04 0.0000e+00 1.0000e+00
<vert_displacement>
35.357677860404863
</vert_displacement>
</event>
<event>
 4   1200 +8.5212000e+10 1.29115800e-02 7.81665300e-03            nan
       50 -1    0    0    0    0 -3.9834676677e-02 +2.3031888438e-02 +1.1900842758e+01 1.1900932760e+01 4.9935713700e-03 0.0000e+00 0.0000e+00
       11 -1    0    0    0    0 -1.6025798255e-18 +9.2659067005e-19 +4.7878010067e-16 5.1100000000e-04 5.1099893000e-04 0.0000e+00 -1.0000e+00
       50  1    1    2    0    0 -3.3967218425e-02 +1.2147097177e-02 +1.1760495881e+01 1.1760552267e+01 4.9935713700e-03 0.0000e+00 0.0000e+00
       11  1    1    2    0    0 -5.8674582525e-03 +1.0884791261e-02 +1.4034687703e-01 1.4089149285e-01 5.1099893000e-04 0.0000e+00 -1.0000e+00
<vert_displacement>
373.62181264500867
</vert_displacement>
</event>
<event>
 4   1200 +8.5212000e+10 1.17390400e-02 7.81665300e-03            nan
       50 -1    0    0    0    0 +1.9753204455e-03 -8.2288719520e-03 +4.9188683354e+00 4.9188781498e+00 4.9935713700e-03 0.0000e+00 0.0000e+00
       11 -1    0    0    0    0 -1.2539334254e-19 +5.2236879424e-19 -3.1224976356e-16 5.1100000000e-04 5.1099893000e-04 0.0000e+00 1.0000e+00
       50  1    1    2    0    0 -3.2844068201e-03 +1.2166129637e-03 +4.8058233536e+00 4.8058272243e+00 4.9935713700e-03 0.0000e+00 0.0000e+00
       11  1    1    2    0    0 +5.2597272656e-03 -9.4454849157e-03 +1.1304498172e-01 1.1356192553e-01 5.1099893000e-04 0.0000e+00 1.0000e+00
<vert_displacement>
462.79373711286183
</vert_displacement>
</event>
<event>
 4   1200 +8.5212000e+10 1.37031100e-02 7.81665300e-03            nan
       50 -1    0    0    0    0 -9.1073881627e-04 -2.6683692508e-02 +1.5611456017e+01 1.5611479647e+01 4.9935713700e-03 0.0000e+00 0.0000e+00
       11 -1    0    0    0    0 -9.6342299114e-20 -2.8227283598e-18 +1.6514543340e-15 5.1100000000e-04 5.1099893000e-04 0.0000e+00 1.0000e+00
       50  1    1    2    0    0 -1.3135255353e-02 -2.2779308950e-02 +1.5450459275e+01 1.5450482458e+01 4.9935713700e-03 0.0000e+00 0.0000e+00
       11  1    1    2    0    0 +1.2224516537e-02 -3.9043835580e-03 +1.6099674249e-01 1.6150818935e-01 5.1099893000e-04 0.0000e+00 1.0000e+00
<vert_displacement>
294.97890100080025
</vert_displacement>
</event>
<event>
 4   1200 +8.5212000e+10 6.96799300e-03 7.81665300e-03            nan
       50 -1    0    0    0    0 -1.6049123800e-03 -1.3541005719e-02 +8.9969808324e+00 8.9969925513e+00 4.9935713700e-03 0.0000e+00 0.0000e+00
       11 -1    0    0    0    0 -8.9120328096e-20 -7.5192819710e-19 +4.9959978728e-16 5.1100000000e-04 5.1099893000e-04 0.0000e+00 -1.0000e+00
       50  1    1    2    0    0 +7.0953752523e-04 -9.2306731401e-03 +8.9738177818e+00 8.9738239467e+00 4.9935713700e-03 0.0000e+00 0.0000e+00
       11  1    1    2    0    0 -2.3144499052e-03 -4.3103325785e-03 +2.3163050543e-02 2.3679604635e-02 5.1099893000e-04 0.0000e+00 -1.0000e+00
<vert_displacement>
16.058660860769677
</vert_displacement>
</event>
<event>
 4   1200 +8.5212000e+10 1.38906000e-02 7.81665300e-03            nan
       50 -1    0    0    0    0 +2.5518084403e-02 +2.4631363162e-02 +9.7844466090e+00 9.7845121624e+00 4.9935713700e-03 0.0000e+00 0.0000e+00
       11 -1    0    0    0    0 -1.8458625880e-18 -1.7817211917e-18 -7.0776252853e-16 5.1100000000e-04 5.1099893000e-04 0.0000e+00 1.0000e+00
       50  1    1    2    0    0 +1.2195412683e-02 +2.5607449327e-02 +9.6172062795e+00 9.6172494003e+00 4.9935713700e-03 0.0000e+00 0.0000e+00
       11  1    1    2    0    0 +1.3322671720e-02 -9.7608616478e-04 +1.6724032951e-01 1.6777376213e-01 5.1099893000e-04 0.0000e+00 1.0000e+00
<vert_displacement>
85.350120490182135
</vert_displacement>
</event>
<event>
 4   1200 +8.5212000e+10 9.75711900e-03 7.81665300e-03            nan
       50 -1    0    0    0    0 -5.6009130555e-03 +4.2226962995e-03 +5.7673017615e+00 5.7673081888e+00 4.9935713700e-03 0.0000e+00 0.0000e+00
       11 -1    0    0    0    0 +6.7386993641e-20 -5.0805075149e-20 -6.9388887718e-17 5.1100000000e-04 5.1099893000e-04 0.0000e+00 1.0000e+00
       50  1    1    2    0    0 -1.1838959843e-02 +9.6948143348e-03 +5.6976889556e+00 5.6977116917e+00 4.9935713700e-03 0.0000e+00 0.0000e+00
       11  1    1    2    0    0 +6.2380467877e-03 -5.4721180352e-03 +6.9612805809e-02 7.0107497145e-02 5.1099893000e-04 0.0000e+00 1.0000e+00
<vert_displacement>
487.76758030022285
</vert_displacement>
</event>
<event>
 4   1200 +8.5212000e+10 1.87639200e-02 7.81665300e-03            nan
       50 -1    0    0    0    0 +2.6440268526e-02 -1.4423638473e-02 +8.4113477738e+00 8.4114031788e+00 4.9935713700e-03 0.0000e+00 0.0000e+00
       11 -1    0    0    0    0 +2.1593494458e-18 -1.1779636697e-18 +6.8694609267e-16 5.1100000000e-04 5.1099893000e-04 0.0000e+00 1.0000e+00
       50  1    1    2    0    0 +3.2603454691e-02 -3.0439505919e-02 +8.0779215390e+00 8.0780462288e+00 4.9935713700e-03 0.0000e+00 0.0000e+00
       11  1    1    2    0    0 -6.1631861647e-03 +1.6015867446e-02 +3.3342623483e-01 3.3386795004e-01 5.1099893000e-04 0.0000e+00 1.0000e+00
<vert_displacement>
37.132825330330263
</vert_displacement>
</event>
<event>
 4   1200 +8.5212000e+10 2.88708100e-02 7.81665300e-03            nan
       50 -1    0    0    0    0 -1.8389923261e-02 -8.6613857803e-03 +5.7309273589e+00 5.7309655851e+00 4.9935713700e-03 0.0000e+00 0.0000e+00
       11 -1    0    0    0    0 +3.7852228220e-19 +1.7827847708e-19 -1.1796045433e-16 5.1100000000e-04 5.1099893000e-04 0.0000e+00 1.0000e+00
       50  1    1    2    0    0 -2.1579533084e-02 -2.3102260522e-02 +9.7303405730e-01 9.7356027195e-01 4.9935713700e-03 0.0000e+00 0.0000e+00
       11  1    1    2    0    0 +3.1896098228e-03 +1.4440874742e-02 +4.7578933016e+00 4.7579163131e+00 5.1099893000e-04 0.0000e+00 1.0000e+00
<vert_displacement>
308.45955335874339
</vert_displacement>
</event>
<event>
 4   1200 +8.5212000e+10 1.35504700e-02 7.81665300e-03            nan
       50 -1    0    0    0    0 -4.7622769088e-03 -9.8348314677e-04 +1.9136454490e+01 1.9136455760e+01 4.9935713700e-03 0.0000e+00 0.0000e+00
       11 -1    0    0    0    0 +5.5257773124e-20 +1.1411576781e-20 -2.2204459776e-16 5.1100000000e-04 5.1099893000e-04 0.0000e+00 -1.0000e+00
       50  1    1    2    0    0 +2.1697050283e-03 -1.1518946619e-02 +1.8979905657e+01 1.8979909933e+01 4.9935713700e-03 0.0000e+00 0.0000e+00
       11  1    1    2    0    0 -6.9319819371e-03 +1.0535463472e-02 +1.5654883336e-01 1.5705682637e-01 5.1099893000e-04 0.0000e+00 -1.0000e+00
<vert_displacement>
49.449862646190482
</vert_displacement>
</event>
<event>
 4   1200 +8.5212000e+10 2.63457700e-02 7.81665300e-03            nan
       50 -1    0    0    0    0 -1.4338438095e-02 -4.9500337593e-03 +5.3969928564e+00 5.3970164834e+00 4.9935713700e-03 0.0000e+00 0.0000e+00
       11 -1    0    0    0    0 -3.5026128380e-19 -1.2092008683e-19 +1.3183846344e-16 5.1100000000e-04 5.1099893000e-04 0.0000e+00 1.0000e+00
       50  1    1    2    0    0 +1.3139987663e-02 +3.7827112152e-04 +4.6338263880e+00 4.6338477243e+00 4.9935713700e-03 0.0000e+00 0.0000e+00
       11  1    1    2    0    0 -2.7478425757e-02 -5.3283048808e-03 +7.6316646845e-01 7.6367975906e-01 5.1099893000e-04 0.0000e+00 1.0000e+00
<vert_displacement>
216.04107714269492
</vert_displacement>
</event>
<event>
 4   1200 +8.5212000e+10 3.11708900e-02 7.81665300e-03            nan
       50 -1    0    0    0    0 -8.1069126005e-03 +1.0393390636e-02 +4.5806709322e+00 4.5806926189e+00 4.9935713700e-03 0.0000e+00 0.0000e+00
       11 -1    0    0    0    0 +1.4613754510e-18 -1.8735425775e-18 -8.2572495589e-16 5.1100000000e-04 5.1099893000e-04 0.0000e+00 1.0000e+00
       50  1    1    2    0    0 -9.1112082555e-03 -2.3133430310e-02 +3.2870125289e+00 3.2871103527e+00 4.9935713700e-03 0.0000e+00 0.0000e+00
       11  1    1    2    0    0 +1.0042956551e-03 +3.3526820947e-02 +1.2936584032e+00 1.2940932662e+00 5.1099893000e-04 0.0000e+00 1.0000e+00
<vert_displacement>
401.01798504981201
</vert_displacement>
</event>
<event>
 4   1200 +8.5212000e+10 2.33216300e-02 7.81665300e-03            nan
       50 -1    0    0    0    0 -1.4158353174e-02 -1.4847292019e-02 +8.7014249977e+00 8.7014506162e+00 4.9935713700e-03 0.0000e+00 0.0000e+00
       11 -1    0    0    0    0 -9.2581721659e-19 -9.7086704945e-19 +5.6898771861e-16 5.1100000000e-04 5.1099893000e-04 0.0000e+00 1.0000e+00
       50  1    1    2    0    0 -2.4346430354e-02 +5.9874762788e-03 +8.1598135105e+00 8.1598535564e+00 4.9935713700e-03 0.0000e+00 0.0000e+00
       11  1    1    2    0    0 +1.0188077180e-02 -2.0834768298e-02 +5.4161148713e-01 5.4210805989e-01 5.1099893000e-04 0.0000e+00 1.0000e+00
<vert_displacement>
246.89933738095121
</vert_displacement>
</event>
<event>
 4   1200 +8.5212000e+10 1.32032100e-02 7.81665300e-03            nan
       50 -1    0    0    0    0 -4.9455447320e-02 -4.5216232224e-02 +2.3597754737e+01 2.3597850409e+01 4.9935713700e-03 0.0000e+00 0.0000e+00
       11 -1    0    0    0    0 -4.1009177205e-18 -3.7493958307e-18 +1.9567601915e-15 5.1100000000e-04 5.1099893000e-04 0.0000e+00 1.0000e+00
       50  1    1    2    0    0 -5.1657116842e-02 -5.6896335202e-02 +2.3450633043e+01 2.3450759491e+01 4.9935713700e-03 0.0000e+00 0.0000e+00
       11  1    1    2    0    0 +2.2016695226e-03 +1.1680102978e-02 +1.4712169387e-01 1.4760191761e-01 5.1099893000e-04 0.0000e+00 1.0000e+00
<vert_displacement>
315.11404010134743
</vert_displacement>
</event>
<event>
 4   1200 +8.5212000e+10 2.26093200e-02 7.81665300e-03            nan
       50 -1    0    0    0    0 +6.6491617017e-04 -2.3020872012e-02 +1.2939520950e+01 1.2939542409e+01 4.9935713700e-03 0.0000e+00 0.0000e+00
       11 -1    0    0    0    0 +1.9967619072e-20 -6.9132324292e-19 +3.8857744314e-16 5.1100000000e-04 5.1099893000e-04 0.0000e+00 1.0000e+00
       50  1    1    2    0    0 -1.5660762741e-02 -3.6991465896e-02 +1.2444746702e+01 1.2444812535e+01 4.9935713700e-03 0.0000e+00 0.0000e+00
       11  1    1    2    0    0 +1.6325678912e-02 +1.3970593885e-02 +4.9477424816e-01 4.9524087376e-01 5.1099893000e-04 0.0000e+00 1.0000e+00
<vert_displacement>
412.47051721946775
</vert_displacement>
</event>
<event>
 4   1200 +8.5212000e+10 5.74988500e-03 7.81665300e-03            nan
       50 -1    0    0    0    0 -6.3168520478e-03 +8.6057588423e-03 +4.6418631762e+00 4.6418781376e+00 4.9935713700e-03 0.0000e+00 0.0000e+00
       11 -1    0    0    0    0 +8.4984549803e-19 -1.1577864028e-18 -6.2449879986e-16 5.1100000000e-04 5.1099893000e-04 0.0000e+00 1.0000e+00
       50  1    1    2    0    0 -5.7301138649e-03 +1.1382719065e-02 +4.6338936800e+00 4.6339138937e+00 4.9935713700e-03 0.0000e+00 0.0000e+00
       11  1    1    2    0    0 -5.8673818287e-04 -2.7769602224e-03 +7.9694961728e-03 8.4752438859e-03 5.1099893000e-04 0.0000e+00 1.0000e+00
<vert_displacement>
461.83535399207727
</vert_displacement>
</event>
<event>
 4   1200 +8.5212000e+10 1.32077900e-02 7.81665300e-03            nan
       50 -1    0    0    0    0 +2.7324786358e-03 -5.9944729985e-03 +3.7618365450e+00 3.7618456278e+00 4.9935713700e-03 0.0000e+00 0.0000e+00
       11 -1    0    0    0    0 -5.0401845075e-21 +1.1057085513e-20 -6.9388832637e-18 5.1100000000e-04 5.1099893000e-04 0.0000e+00 1.0000e+00
       50  1    1    2    0    0 +8.6159277644e-03 -1.6408731586e-02 +3.6092790639e+00 3.6093301009e+00 4.9935713700e-03 0.0000e+00 0.0000e+00
       11  1    1    2    0    0 -5.8834491286e-03 +1.0414258588e-02 +1.5255748119e-01 1.5302652692e-01 5.1099893000e-04 0.0000e+00 1.0000e+00
<vert_displacement>
53.731490362986015
</vert_displacement>
</event>
<event>
 4   1200 +8.5212000e+10 1.37058300e-02 7.81665300e-03            nan
       50 -1    0    0    0    0 +4.9631696450e-04 -2.1559991317e-03 +5.0017340619e+00 5.0017370439e+00 4.9935713700e-03 0.0000e+00 0.0000e+00
       11 -1    0    0    0    0 -5.5083143243e-21 +2.3928097868e-20 -5.5511145801e-17 5.1100000000e-04 5.1099893000e-04 0.0000e+00 1.0000e+00
       50  1    1    2    0    0 +1.9894675883e-03 +1.0589280677e-02 +4.8368540504e+00 4.8368686287e+00 4.9935713700e-03 0.0000e+00 0.0000e+00
       11  1    1    2    0    0 -1.4931506238e-03 -1.2745279809e-02 +1.6488001156e-01 1.6537941525e-01 5.1099893000e-04 0.0000e+00 1.0000e+00
<vert_displacement>
99.740187150080857
</vert_displacement>
</event>
<event>
 4   1200 +8.5212000e+10 1.95942000e-02 7.81665300e-03            nan
       50 -1    0    0    0    0 +2.5819837542e-03 -1.4668984379e-02 +1.1871312230e+01 1.1871322624e+01 4.9935713700e-03 0.0000e+00 0.0000e+00
       11 -1    0    0    0    0 +2.0675939382e-19 -1.1746589471e-18 +9.5062771661e-16 5.1100000000e-04 5.1099893000e-04 0.0000e+00 1.0000e+00
       50  1    1    2    0    0 +1.8535926528e-02 -4.1243034270e-03 +1.1508953551e+01 1.1508970300e+01 4.9935713700e-03 0.0000e+00 0.0000e+00
       11  1    1    2    0    0 -1.5953942774e-02 -1.0544680952e-02 +3.6235867923e-01 3.6286332429e-01 5.1099893000e-04 0.0000e+00 1.0000e+00
<vert_displacement>
101.16143291300237
</vert_displacement>
</event>
<event>
 4   1200 +8.5212000e+10 5.66942200e-03 7.81665300e-03            nan
       50 -1    0    0    0    0 -7.0965186338e-02 -3.0512673054e-02 +2.2977940059e+01 2.2978070445e+01 4.9935713700e-03 0.0000e+00 0.0000e+00
       11 -1    0    0    0    0 -1.9286994551e-18 -8.2927670493e-19 +6.2449692246e-16 5.1100000000e-04 5.1099893000e-04 0.0000e+00 1.0000e+00
       50  1    1    2    0    0 -7.2938087227e-02 -2.8706696268e-02 +2.2970882540e+01 2.2971016817e+01 4.9935713700e-03 0.0000e+00 0.0000e+00
       11  1    1    2    0    0 +1.9729008886e-03 -1.8059767857e-03 +7.0575191596e-03 7.5646273313e-03 5.1099893000e-04 0.0000e+00 1.0000e+00
<vert_displacement>
460.33419021678293
</vert_displacement>
</event>
<event>
 4   1200 +8.5212000e+10 1.96300200e-02 7.81665300e-03            nan
       50 -1    0    0    0    0 +2.5730903107e-02 +4.5538692568e-02 +2.2981799177e+01 2.2981859242e+01 4.9935713700e-03 0.0000e+00 0.0000e+00
       11 -1    0    0    0    0 -1.5071686653e-18 -2.6673953188e-18 -1.3461419309e-15 5.1100000000e-04 5.1099893000e-04 0.0000e+00 1.0000e+00
       50  1    1    2    0    0 +3.3228672324e-02 +2.7565892588e-02 +2.2623583792e+01 2.2623625539e+01 4.9935713700e-03 0.0000e+00 0.0000e+00
       11  1    1    2    0    0 -7.4977692169e-03 +1.7972799979e-02 +3.5821538591e-01 3.5874470296e-01 5.1099893000e-04 0.0000e+00 1.0000e+00
<vert_displacement>
153.95967304119691
</vert_displacement>
</event>
<event>
 4   1200 +8.5212000e+10 2.68516600e-02 7.81665300e-03            nan
       50 -1    0    0    0    0 -7.0087201078e-04 +6.2143913112e-03 +5.8272525143e+00 5.8272580097e+00 4.9935713700e-03 0.0000e+00 0.0000e+00
       11 -1    0    0    0    0 +8.3457404848e-21 -7.3998813416e-20 -6.9388899080e-17 5.1100000000e-04 5.1099893000e-04 0.0000e+00 1.0000e+00
       50  1    1    2    0    0 -1.6878017958e-02 -1.5393928857e-02 +5.0390645410e+00 5.0391187945e+00 4.9935713700e-03 0.0000e+00 0.0000e+00
       11  1    1    2    0    0 +1.6177145947e-02 +2.1608320169e-02 +7.8818797332e-01 7.8865021521e-01 5.1099893000e-04 0.0000e+00 1.0000e+00
<vert_displacement>
51.982209219365799
</vert_displacement>
</event>
<event>
 4   1200 +8.5212000e+10 1.03857100e-02 7.81665300e-03            nan
       50 -1    0    0    0    0 +3.2206532174e-02 +2.5629313212e-02 +1.4220112048e+01 1.4220172493e+01 4.9935713700e-03 0.0000e+00 0.0000e+00
       11 -1    0    0    0    0 +3.6145747488e-18 +2.8764061856e-18 +1.5959389125e-15 5.1100000000e-04 5.1099893000e-04 0.0000e+00 1.0000e+00
       50  1    1    2    0    0 +2.6948656063e-02 +3.3044731863e-02 +1.4138495976e+01 1.4138561157e+01 4.9935713700e-03 0.0000e+00 0.0000e+00
       11  1    1    2    0    0 +5.2578761107e-03 -7.4154186512e-03 +8.1616072013e-02 8.2122335730e-02 5.1099893000e-04 0.0000e+00 1.0000e+00
<vert_displacement>
281.63863976584997
</vert_displacement>
</event>
<event>
 4   1200 +8.5212000e+10 2.71988300e-02 7.81665300e-03            nan
       50 -1    0    0    0    0 +4.2374651472e-03 +8.5312805407e-03 +3.9593110179e+00 3.9593256257e+00 4.9935713700e-03 0.0000e+00 0.0000e+00
       11 -1    0    0    0    0 -8.5403044177e-19 -1.7194178680e-18 -7.9797048949e-16 5.1100000000e-04 5.1099893000e-04 0.0000e+00 1.0000e+00
       50  1    1    2    0    0 +1.8258750965e-02 -1.5565017393e-02 +3.0493994980e+00 3.0494979728e+00 4.9935713700e-03 0.0000e+00 0.0000e+00
       11  1    1    2    0    0 -1.4021285818e-02 +2.4096297934e-02 +9.0991151985e-01 9.1033865298e-01 5.1099893000e-04 0.0000e+00 1.0000e+00
<vert_displacement>
150.13569831701039
</vert_displacement>
</event>
<event>
 4   1200 +8.5212000e+10 1.84764300e-02 7.81665300e-03            nan
       50 -1    0    0    0    0 -8.9157884720e-03 +1.3319430239e-02 +9.1362792019e+00 9.1362946258e+00 4.9935713700e-03 0.0000e+00 0.0000e+00
       11 -1    0    0    0    0 +3.1825690134e-19 -4.7544876247e-19 -3.2612751163e-16 5.1100000000e-04 5.1099893000e-04 0.0000e+00 1.0000e+00
       50  1    1    2    0    0 +2.4327430466e-03 -1.1006539479e-03 +8.8153579412e+00 8.8153597599e+00 4.9935713700e-03 0.0000e+00 0.0000e+00
       11  1    1    2    0    0 -1.1348531519e-02 +1.4420084187e-02 +3.2092126073e-01 3.2144586590e-01 5.1099893000e-04 0.0000e+00 1.0000e+00
<vert_displacement>
5.1804078367012352
</vert_displacement>
</event>
<event>
 4   1200 +8.5212000e+10 5.29346200e-03 7.81665300e-03            nan
       50 -1    0    0    0    0 -2.3518446906e-02 +6.1117434444e-02 +5.5785715986e+01 5.5785754646e+01 4.9935713700e-03 0.0000e+00 0.0000e+00
       11 -1    0    0    0    0 -1.0004644962e-18 +2.5999090629e-18 +2.3731000800e-15 5.1100000000e-04 5.1099893000e-04 0.0000e+00 1.0000e+00
       50  1    1    2    0    0 -2.2944447614e-02 +6.2774539137e-02 +5.5782695643e+01 5.5782735906e+01 4.9935713700e-03 0.0000e+00 0.0000e+00
       11  1    1    2    0    0 -5.7399929230e-04 -1.6571046935e-03 +3.0203430971e-03 3.5297398606e-03 5.1099893000e-04 0.0000e+00 1.0000e+00
<vert_displacement>
92.668925000437412
</vert_displacement>
</event>
<event>
 4   1200 +8.5212000e+10 4.40935000e-02 7.81665300e-03            nan
       50 -1    0    0    0    0 -3.0443802281e-02 +1.8662473024e-02 +8.7895461214e+00 8.7896200754e+00 4.9935713700e-03 0.0000e+00 0.0000e+00
       11 -1    0    0    0    0 -1.9707564604e-18 +1.2081010427e-18 +5.6898460459e-16 5.1100000000e-04 5.1099893000e-04 0.0000e+00 1.0000e+00
       50  1    1    2    0    0 +6.0842940659e-03 +4.7307312237e-02 +6.0639733215e+00 6.0641629579e+00 4.9935713700e-03 0.0000e+00 0.0000e+00
       11  1    1    2    0    0 -3.6528096347e-02 -2.8644839213e-02 +2.7255727999e+00 2.7259681175e+00 5.1099893000e-04 0.0000e+00 1.0000e+00
<vert_displacement>
330.52016780332286
</vert_displacement>
</event>
<event>
 4   1200 +8.5212000e+10 1.35304500e-02 7.81665300e-03            nan
       50 -1    0    0    0    0 +4.9197650399e-02 +4.7585367582e-02 +2.5865180066e+01 2.5865271110e+01 4.9935713700e-03 0.0000e+00 0.0000e+00
       11 -1    0    0    0    0 +6.5991437196e-19 +6.3828796107e-19 +3.4694348045e-16 5.1100000000e-04 5.1099893000e-04 0.0000e+00 1.0000e+00
       50  1    1    2    0    0 +5.4865209700e-02 +3.6227747738e-02 +2.5709515614e+01 2.5709600166e+01 4.9935713700e-03 0.0000e+00 0.0000e+00
       11  1    1    2    0    0 -5.6675593016e-03 +1.1357619844e-02 +1.5566445241e-01 1.5618194396e-01 5.1099893000e-04 0.0000e+00 1.0000e+00
<vert_displacement>
182.77861098646017
</vert_displacement>
</event>
<event>
 4   1200 +8.5212000e+10 1.18925700e-02 7.81665300e-03            nan
       50 -1    0    0    0    0 -6.2351200272e-03 +2.5760167619e-03 +2.3134566262e+00 2.3134718519e+00 4.9935713700e-03 0.0000e+00 0.0000e+00
       11 -1    0    0    0    0 -1.9636367718e-19 +8.1126926446e-20 +7.2858076209e-17 5.1100000000e-04 5.1099893000e-04 0.0000e+00 1.0000e+00
       50  1    1    2    0    0 -7.4838166946e-03 -8.2361321343e-03 +2.1931246370e+00 2.1931585557e+00 4.9935713700e-03 0.0000e+00 0.0000e+00
       11  1    1    2    0    0 +1.2486966674e-03 +1.0812148896e-02 +1.2033198927e-01 1.2082429626e-01 5.1099893000e-04 0.0000e+00 1.0000e+00
<vert_displacement>
306.77493712003974
</vert_displacement>
</event>
<event>
 4   1200 +8.5212000e+10 1.71193200e-02 7.81665300e-03            nan
       50 -1    0    0    0    0 +6.3556729286e-02 +1.0417777740e-02 +2.2543143063e+01 2.2543235617e+01 4.9935713700e-03 0.0000e+00 0.0000e+00
       11 -1    0    0    0    0 +2.0736784413e-18 +3.3990297091e-19 +7.3551975208e-16 5.1100000000e-04 5.1099893000e-04 0.0000e+00 1.0000e+00
       50  1    1    2    0    0 +7.9178053286e-02 +1.0696392206e-02 +2.2277598318e+01 2.2277742150e+01 4.9935713700e-03 0.0000e+00 0.0000e+00
       11  1    1    2    0    0 -1.5621324000e-02 -2.7861446544e-04 +2.6554474520e-01 2.6600446653e-01 5.1099893000e-04 0.0000e+00 1.0000e+00
<vert_displacement>
31.339739758346493
</vert_displacement>
</event>
<event>
 4   1200 +8.5212000e+10 1.68851800e-02 7.81665300e-03            nan
       50 -1    0    0    0    0 +6.1962825713e-03 +5.8977555078e-03 +4.6704395980e+00 4.6704501016e+00 4.9935713700e-03 0.0000e+00 0.0000e+00
       11 -1    0    0    0    0 +2.2093993170e-19 +2.1029539633e-19 +1.6653317435e-16 5.1100000000e-04 5.1099893000e-04 0.0000e+00 1.0000e+00
       50  1    1    2    0    0 +1.8107927926e-02 +1.6025998546e-02 +4.4000818614e+00 4.4001511397e+00 4.9935713700e-03 0.0000e+00 0.0000e+00
       11  1    1    2    0    0 -1.1911645355e-02 -1.0128243038e-02 +2.7035773660e-01 2.7080996189e-01 5.1099893000e-04 0.0000e+00 1.0000e+00
<vert_displacement>
269.95549184138923
</vert_displacement>
</event>
<event>
 4   1200 +8.5212000e+10 6.24598400e-02 7.81665300e-03            nan
       50 -1    0    0    0    0 +2.9501162750e-02 -2.5343606034e-02 +1.5199309800e+01 1.5199360379e+01 4.9935713700e-03 0.0000e+00 0.0000e+00
       11 -1    0    0    0    0 +4.5791303755e-19 -3.9338000741e-19 +2.3592162038e-16 5.1100000000e-04 5.1099893000e-04 0.0000e+00 1.0000e+00
       50  1    1    2    0    0 -4.5947989508e-02 -1.2894850793e-04 +7.7242666711e+00 7.7244049464e+00 4.9935713700e-03 0.0000e+00 0.0000e+00
       11  1    1    2    0    0 +7.5449152258e-02 -2.5214657526e-02 +7.4750431287e+00 7.4754664330e+00 5.1099893000e-04 0.0000e+00 1.0000e+00
<vert_displacement>
69.021547794296026
</vert_displacement>
</event>
<event>
 4   1200 +8.5212000e+10 7.79718800e-03 7.81665300e-03            nan
       50 -1    0    0    0    0 +9.8685931197e-02 +3.7087602551e-02 +2.9788369488e+01 2.9788556463e+01 4.9935713700e-03 0.0000e+00 0.0000e+00
       11 -1    0    0    0    0 +4.0458400248e-18 +1.5204852911e-18 +1.2212376788e-15 5.1100000000e-04 5.1099893000e-04 0.0000e+00 1.0000e+00
       50  1    1    2    0    0 +1.0252306532e-01 +3.2546082932e-02 +2.9753231701e+01 2.9753426556e+01 4.9935713700e-03 0.0000e+00 0.0000e+00
       11  1    1    2    0    0 -3.8371341207e-03 +4.5415196190e-03 +3.5137787693e-02 3.5640906871e-02 5.1099893000e-04 0.0000e+00 1.0000e+00
<vert_displacement>
257.84081764940430
</vert_displacement>
</event>
<event>
 4   1200 +8.5212000e+10 6.34029300e-03 7.81665300e-03            nan
       50 -1    0    0    0    0 +9.6005512313e-03 -1.4184318957e-02 +8.3028769987e+00 8.3028961668e+00 4.9935713700e-03 0.0000e+00 0.0000e+00
       11 -1    0    0    0    0 +3.6907507786e-19 -5.4528937946e-19 +3.1918844043e-16 5.1100000000e-04 5.1099893000e-04 0.0000e+00 1.0000e+00
       50  1    1    2    0    0 +1.3407294678e-02 -1.4958889759e-02 +8.2879082812e+00 8.2879341297e+00 4.9935713700e-03 0.0000e+00 0.0000e+00
       11  1    1    2    0    0 -3.8067434463e-03 +7.7457080222e-04 +1.4968717450e-02 1.5473037116e-02 5.1099893000e-04 0.0000e+00 1.0000e+00
<vert_displacement>
410.33352303302939
</vert_displacement>
</event>
<event>
 4   1200 +8.5212000e+10 1.09861600e-02 7.81665300e-03            nan
       50 -1    0    0    0    0 -7.9331837749e-03 -2.5864668025e-03 +3.5488703560e+00 3.5488836787e+00 4.9935713700e-03 0.0000e+00 0.0000e+00
       11 -1    0    0    0    0 +1.0857865743e-19 +3.5400048816e-20 -4.8572123069e-17 5.1100000000e-04 5.1099893000e-04 0.0000e+00 1.0000e+00
       50  1    1    2    0    0 -5.0877468790e-03 -1.1941890564e-02 +3.4525240558e+00 3.4525520685e+00 4.9935713700e-03 0.0000e+00 0.0000e+00
       11  1    1    2    0    0 -2.8454368960e-03 +9.3554237613e-03 +9.6346300161e-02 9.6842610144e-02 5.1099893000e-04 0.0000e+00 1.0000e+00
<vert_displacement>
423.63242182266646
</vert_displacement>
</event>
<event>
 4   1200 +8.5212000e+10 2.34596800e-02 7.81665300e-03            nan
       50 -1    0    0    0    0 +6.0232177322e-02 -4.5057589658e-02 +1.8795435577e+01 1.8795586758e+01 4.9935713700e-03 0.0000e+00 0.0000e+00
       11 -1    0    0    0    0 -3.1575575991e-18 +2.3620586362e-18 -9.8531504377e-16 5.1100000000e-04 5.1099893000e-04 0.0000e+00 1.0000e+00
       50  1    1    2    0    0 +4.0213648116e-02 -5.7561833248e-02 +1.8266431415e+01 1.8266567058e+01 4.9935713700e-03 0.0000e+00 0.0000e+00
       11  1    1    2    0    0 +2.0018529206e-02 +1.2504243590e-02 +5.2900416185e-01 5.2953069977e-01 5.1099893000e-04 0.0000e+00 1.0000e+00
<vert_displacement>
327.28934124919408
</vert_displacement>
</event>
<event>
 4   1200 +8.5212000e+10 1.38294900e-02 7.81665300e-03            nan
       50 -1    0    0    0    0 +6.0372081476e-02 -3.6050175244e-02 +2.6767566085e+01 2.6767658909e+01 4.9935713700e-03 0.0000e+00 0.0000e+00
       11 -1    0    0    0    0 -1.6589063894e-18 +9.9058810941e-19 -7.3552021600e-16 5.1100000000e-04 5.1099893000e-04 0.0000e+00 1.0000e+00
       50  1    1    2    0    0 +7.1094426886e-02 -2.9249835963e-02 +2.6603806048e+01 2.6603917590e+01 4.9935713700e-03 0.0000e+00 0.0000e+00
       11  1    1    2    0    0 -1.0722345410e-02 -6.8003392802e-03 +1.6376003684e-01 1.6425231838e-01 5.1099893000e-04 0.0000e+00 1.0000e+00
<vert_displacement>
324.40604442423381
</vert_displacement>
</event>
<event>
 4   1200 +8.5212000e+10 1.23683000e-02 7.81665300e-03            nan
       50 -1    0    0    0    0 +2.7107079155e-02 -7.5628035333e-02 +5.7885968301e+01 5.7886024268e+01 4.9935713700e-03 0.0000e+00 0.0000e+00
       11 -1    0    0    0    0 -2.7034763621e-18 +7.5426276903e-18 -5.7731541678e-15 5.1100000000e-04 5.1099893000e-04 0.0000e+00 1.0000e+00
       50  1    1    2    0    0 +1.5764713996e-02 -7.4615432751e-02 +5.7760418449e+01 5.7760469010e+01 4.9935713700e-03 0.0000e+00 0.0000e+00
       11  1    1    2    0    0 +1.1342365159e-02 -1.0126025824e-03 +1.2554985243e-01 1.2606625709e-01 5.1099893000e-04 0.0000e+00 1.0000e+00
<vert_displacement>
84.022915820783496
</vert_displacement>
</event>
<event>
 4   1200 +8.5212000e+10 2.19342300e-02 7.81665300e-03            nan
       50 -1    0    0    0    0 -7.9616926074e-03 -5.2708225062e-03 +3.5738062983e+00 3.5738225423e+00 4.9935713700e-03 0.0000e+00 0.0000e+00
       11 -1    0    0    0    0 -5.4104219644e-19 -3.5818230198e-19 +2.4286041984e-16 5.1100000000e-04 5.1099893000e-04 0.0000e+00 1.0000e+00
       50  1    1    2    0    0 -2.8113996239e-02 -5.7929634494e-03 +3.0500877728e+00 3.0502269281e+00 4.9935713700e-03 0.0000e+00 0.0000e+00
       11  1    1    2    0    0 +2.0152303631e-02 +5.2214094322e-04 +5.2371852554e-01 5.2410661424e-01 5.1099893000e-04 0.0000e+00 1.0000e+00
<vert_displacement>
273.07384321224015
</vert_displacement>
</event>
<event>
 4   1200 +8.5212000e+10 1.37946900e-02 7.81665300e-03            nan
       50 -1    0    0    0    0 -8.0371984997e-02 +6.0492247696e-03 +2.3858073609e+01 2.3858210275e+01 4.9935713700e-03 0.0000e+00 0.0000e+00
       11 -1    0    0    0    0 +2.5245317948e-18 -1.9000974364e-19 -7.4939626528e-16 5.1100000000e-04 5.1099893000e-04 0.0000e+00 1.0000e+00
       50  1    1    2    0    0 -7.3160105007e-02 +1.7006141054e-02 +2.3695179004e+01 2.3695298576e+01 4.9935713700e-03 0.0000e+00 0.0000e+00
       11  1    1    2    0    0 -7.2118799903e-03 -1.0956916285e-02 +1.6289460489e-01 1.6342269931e-01 5.1099893000e-04 0.0000e+00 1.0000e+00
<vert_displacement>
309.43805721727580
</vert_displacement>
</event>
<event>
 4   1200 +8.5212000e+10 1.32369300e-02 7.81665300e-03            nan
       50 -1    0    0    0    0 -3.0230913749e-03 -8.1049501242e-03 +6.9743574200e+00 6.9743645723e+00 4.9935713700e-03 0.0000e+00 0.0000e+00
       11 -1    0    0    0    0 +2.7670997457e-19 +7.4186329971e-19 -6.3837774813e-16 5.1100000000e-04 5.1099893000e-04 0.0000e+00 -1.0000e+00
       50  1    1    2    0    0 +5.8671851967e-03 -1.6438956215e-02 +6.8240446604e+00 6.8240688102e+00 4.9935713700e-03 0.0000e+00 0.0000e+00
       11  1    1    2    0    0 -8.8902765717e-03 +8.3340060907e-03 +1.5031275959e-01 1.5080676209e-01 5.1099893000e-04 0.0000e+00 -1.0000e+00
<vert_displacement>
400.38527053048568
</vert_displacement>
</event>
<event>
 4   1200 +8.5212000e+10 4.29864500e-02 7.81665300e-03            nan
       50 -1    0    0    0    0 +5.9614640904e-02 +4.2272482555e-02 +2.0264397856e+01 2.0264530250e+01 4.9935713700e-03 0.0000e+00 0.0000e+00
       11 -1    0    0    0    0 +4.4908580992e-18 +3.1844479439e-18 +1.5265467317e-15 5.1100000000e-04 5.1099893000e-04 0.0000e+00 1.0000e+00
       50  1    1    2    0    0 +3.5476059600e-02 -4.1453413153e-04 +1.8287782732e+01 1.8287817828e+01 4.9935713700e-03 0.0000e+00 0.0000e+00
       11  1    1    2    0    0 +2.4138581305e-02 +4.2687016687e-02 +1.9766151238e+00 1.9772234222e+00 5.1099893000e-04 0.0000e+00 1.0000e+00
<vert_displacement>
357.08039748387080
</vert_displacement>
</event>
<event>
 4   1200 +8.5212000e+10 9.56189000e-03 7.81665300e-03            nan
       50 -1    0    0    0    0 -2.1779530553e-03 +3.3056809723e-03 +5.6482210728e+00 5.6482246674e+00 4.9935713700e-03 0.0000e+00 0.0000e+00
       11 -1    0    0    0    0 +6.9566526002e-20 -1.0558755652e-19 -1.8041119719e-16 5.1100000000e-04 5.1099893000e-04 0.0000e+00 -1.0000e+00
       50  1    1    2    0    0 -4.0258189289e-03 +1.1203449228e-02 +5.5823764573e+00 5.5823913846e+00 4.9935713700e-03 0.0000e+00 0.0000e+00
       11  1    1    2    0    0 +1.8478658737e-03 -7.8977682557e-03 +6.5844615520e-02 6.6344282833e-02 5.1099893000e-04 0.0000e+00 -1.0000e+00
<vert_displacement>
62.269907837571573
</vert_displacement>
</event>
<event>
 4   1200 +8.5212000e+10 1.03095300e-02 7.81665300e-03            nan
       50 -1    0    0    0    0 +1.7023974869e-02 +1.8740987605e-03 +1.3824530839e+01 1.3824542350e+01 4.9935713700e-03 0.0000e+00 0.0000e+00
       11 -1    0    0    0    0 -9.4846969813e-19 -1.0441309385e-19 -7.7021663227e-16 5.1100000000e-04 5.1099893000e-04 0.0000e+00 1.0000e+00
       50  1    1    2    0    0 +1.4793797887e-02 -6.9007127338e-03 +1.3744467828e+01 1.3744478429e+01 4.9935713700e-03 0.0000e+00 0.0000e+00
       11  1    1    2    0    0 +2.2301769821e-03 +8.7748114943e-03 +8.0063011138e-02 8.0574920903e-02 5.1099893000e-04 0.0000e+00 1.0000e+00
<vert_displacement>
123.56377189544607
</vert_displacement>
</event>
<event>
 4   1200 +8.5212000e+10 1.29672300e-02 7.81665300e-03            nan
       50 -1    0    0    0    0 +2.5258435692e-02 -4.3600466103e-03 +1.5575823345e+01 1.5575845236e+01 4.9935713700e-03 0.0000e+00 0.0000e+00
       11 -1    0    0    0    0 -1.4853165756e-18 +2.5639155090e-19 -9.1593275510e-16 5.1100000000e-04 5.1099893000e-04 0.0000e+00 1.0000e+00
       50  1    1    2    0    0 +2.7286568849e-02 -1.6072778615e-02 +1.5434395617e+01 1.5434428914e+01 4.9935713700e-03 0.0000e+00 0.0000e+00
       11  1    1    2    0    0 -2.0281331574e-03 +1.1712732005e-02 +1.4142772810e-01 1.4192732228e-01 5.1099893000e-04 0.0000e+00 1.0000e+00
<vert_displacement>
133.87778647570570
</vert_displacement>
</event>
<event>
 4   1200 +8.5212000e+10 2.07586700e-02 7.81665300e-03            nan
       50 -1    0    0    0    0 +3.8958599053e-02 -3.0839396143e-02 +1.9781474828e+01 1.9781537861e+01 4.9935713700e-03 0.0000e+00 0.0000e+00
       11 -1    0    0    0    0 +1.3665752177e-18 -1.0817728441e-18 +6.9388720145e-16 5.1100000000e-04 5.1099893000e-04 0.0000e+00 1.0000e+00
       50  1    1    2    0    0 +5.1911495649e-02 -4.4933791071e-02 +1.9375842777e+01 1.9375965063e+01 4.9935713700e-03 0.0000e+00 0.0000e+00
       11  1    1    2    0    0 -1.2952896596e-02 +1.4094394928e-02 +4.0563205058e-01 4.0608379810e-01 5.1099893000e-04 0.0000e+00 1.0000e+00
<vert_displacement>
205.83497845439106
</vert_displacement>
</event>
<event>
 4   1200 +8.5212000e+10 8.04061600e-03 7.81665300e-03            nan
       50 -1    0    0    0    0 -5.1829481551e-03 +4.0243620758e-03 +5.1844508529e+00 5.1844574104e+00 4.9935713700e-03 0.0000e+00 0.0000e+00
       11 -1    0    0    0    0 +3.0522259370e-19 -2.3699373291e-19 -3.0531108722e-16 5.1100000000e-04 5.1099893000e-04 0.0000e+00 1.0000e+00
       50  1    1    2    0    0 -2.7318070521e-03 +9.8161665730e-03 +5.1452869171e+00 5.1452994291e+00 4.9935713700e-03 0.0000e+00 0.0000e+00
       11  1    1    2    0    0 -2.4511411030e-03 -5.7918044973e-03 +3.9163935821e-02 3.9668981345e-02 5.1099893000e-04 0.0000e+00 1.0000e+00
<vert_displacement>
403.13758954148375
</vert_displacement>
</event>
<event>
 4   1200 +8.5212000e+10 3.30207100e-02 7.81665300e-03            nan
       50 -1    0    0    0    0 +2.8635030185e-02 +5.3740484896e-03 +1.3478108919e+01 1.3478141334e+01 4.9935713700e-03 0.0000e+00 0.0000e+00
       11 -1    0    0    0    0 +1.1203958934e-18 +2.1026909418e-19 +5.2735470461e-16 5.1100000000e-04 5.1099893000e-04 0.0000e+00 1.0000e+00
       50  1    1    2    0    0 +1.7723199270e-02 +3.6436838701e-02 +1.2339162745e+01 1.2339230282e+01 4.9935713700e-03 0.0000e+00 0.0000e+00
       11  1    1    2    0    0 +1.0911830915e-02 -3.1062790211e-02 +1.1389461741e+00 1.1394220524e+00 5.1099893000e-04 0.0000e+00 1.0000e+00
<vert_displacement>
177.01433232604523
</vert_displacement>
</event>
<event>
 4   1200 +8.5212000e+10 8.48410800e-03 7.81665300e-03            nan
       50 -1    0    0    0    0 -2.3561924645e-03 -9.7839998111e-03 +3.8410479819e+00 3.8410644115e+00 4.9935713700e-03 0.0000e+00 0.0000e+00
       11 -1    0    0    0    0 -2.5538832355e-20 -1.0604903237e-19 +4.1633220525e-17 5.1100000000e-04 5.1099893000e-04 0.0000e+00 1.0000e+00
       50  1    1    2    0    0 +4.4578560264e-03 -1.0666217885e-02 +3.7944428878e+00 3.7944637836e+00 4.9935713700e-03 0.0000e+00 0.0000e+00
       11  1    1    2    0    0 -6.8140484910e-03 +8.8221807373e-04 +4.6605094081e-02 4.7111627862e-02 5.1099893000e-04 0.0000e+00 1.0000e+00
<vert_displacement>
181.46438595720738
</vert_displacement>
</event>
<event>
 4   1200 +8.5212000e+10 1.04354800e-02 7.81665300e-03            nan
       50 -1    0    0    0    0 -9.9873909822e-03 -1.8172591812e-02 +1.3598995993e+01 1.3599012719e+01 4.9935713700e-03 0.0000e+00 0.0000e+00
       11 -1    0    0    0    0 +4.7903009840e-19 +8.7162087271e-19 -6.5225526868e-16 5.1100000000e-04 5.1099893000e-04 0.0000e+00 1.0000e+00
       50  1    1    2    0    0 -2.0668821057e-03 -1.3351824593e-02 +1.3516345576e+01 1.3516353251e+01 4.9935713700e-03 0.0000e+00 0.0000e+00
       11  1    1    2    0    0 -7.9205088765e-03 -4.8207672193e-03 +8.2650416740e-02 8.3170468104e-02 5.1099893000e-04 0.0000e+00 1.0000e+00
<vert_displacement>
113.79425790908634
</vert_displacement>
</event>
<event>
 4   1200 +8.5212000e+10 1.54545000e-02 7.81665300e-03            nan
       50 -1    0    0    0    0 -5.5197291569e-02 +5.9421536252e-04 +2.2369422521e+01 2.2369491187e+01 4.9935713700e-03 0.0000e+00 0.0000e+00
       11 -1    0    0    0    0 +1.4382394812e-18 -1.5483078434e-20 -5.8286531327e-16 5.1100000000e-04 5.1099893000e-04 0.0000e+00 1.0000e+00
       50  1    1    2    0    0 -6.9190820457e-02 +2.3834482987e-03 +2.2158083116e+01 2.2158191834e+01 4.9935713700e-03 0.0000e+00 0.0000e+00
       11  1    1    2    0    0 +1.3993528888e-02 -1.7892329362e-03 +2.1133940561e-01 2.1181035312e-01 5.1099893000e-04 0.0000e+00 1.0000e+00
<vert_displacement>
376.49993492411033
</vert_displacement>
</event>
<event>
 4   1200 +8.5212000e+10 4.47550900e-02 7.81665300e-03            nan
       50 -1    0    0    0    0 -2.8886985164e-03 +1.2094448105e-02 +1.2213962421e+01 1.2213969772e+01 4.9935713700e-03 0.0000e+00 0.0000e+00
       11 -1    0    0    0    0 -4.5458534428e-19 +1.9032650255e-18 +1.9220726153e-15 5.1100000000e-04 5.1099893000e-04 0.0000e+00 1.0000e+00
       50  1    1    2    0    0 -4.5827109057e-02 +4.8336470380e-04 +9.8005668260e+00 9.8006752525e+00 4.9935713700e-03 0.0000e+00 0.0000e+00
       11  1    1    2    0    0 +4.2938410540e-02 +1.1611083401e-02 +2.4133955952e+00 2.4138055191e+00 5.1099893000e-04 0.0000e+00 1.0000e+00
<vert_displacement>
265.92325044035806
</vert_displacement>
</event>
<event>
 4   1200 +8.5212000e+10 8.82720200e-03 7.81665300e-03            nan
       50 -1    0    0    0    0 -4.4900380273e-02 +4.1429666123e-02 +1.6185254812e+01 1.6185370886e+01 4.9935713700e-03 0.0000e+00 0.0000e+00
       11 -1    0    0    0    0 +4.2348722334e-19 -3.9075246498e-19 -1.5265457837e-16 5.1100000000e-04 5.1099893000e-04 0.0000e+00 1.0000e+00
       50  1    1    2    0    0 -3.7878331633e-02 +3.8913353336e-02 +1.6133268136e+01 1.6133360304e+01 4.9935713700e-03 0.0000e+00 0.0000e+00
       11  1    1    2    0    0 -7.0220486406e-03 +2.5163127867e-03 +5.1986676374e-02 5.2521582587e-02 5.1099893000e-04 0.0000e+00 1.0000e+00
<vert_displacement>
36.602511986581028
</vert_displacement>
</event>
<event>
 4   1200 +8.5212000e+10 1.02996900e-02 7.81665300e-03            nan
       50 -1    0    0    0    0 +3.2825626324e-03 +4.4863123163e-03 +2.6399089368e+00 2.6399195126e+00 4.9935713700e-03 0.0000e+00 0.0000e+00
       11 -1    0    0    0    0 -6.4710480225e-20 -8.8440482919e-20 -5.2041588899e-17 5.1100000000e-04 5.1099893000e-04 0.0000e+00 -1.0000e+00
       50  1    1    2    0    0 -3.3074441544e-03 -1.9022157440e-03 +2.5579418522e+00 2.5579495720e+00 4.9935713700e-03 0.0000e+00 0.0000e+00
       11  1    1    2    0    0 +6.5900067869e-03 +6.3885280603e-03 +8.1967084599e-02 8.2480940573e-02 5.1099893000e-04 0.0000e+00 -1.0000e+00
<vert_displacement>
293.60687262418224
</vert_displacement>
</event>
<event>
 4   1200 +8.5212000e+10 1.12187300e-02 7.81665300e-03            nan
       50 -1    0    0    0    0 +3.3235030272e-02 +2.9701219267e-05 +1.8468004052e+01 1.8468034632e+01 4.9935713700e-03 0.0000e+00 0.0000e+00
       11 -1    0    0    0    0 +7.1177137322e-18 +6.3609021720e-21 +3.9551631207e-15 5.1100000000e-04 5.1099893000e-04 0.0000e+00 1.0000e+00
       50  1    1    2    0    0 +4.2614793937e-02 -3.0623920411e-03 +1.8368698122e+01 1.8368748488e+01 4.9935713700e-03 0.0000e+00 0.0000e+00
       11  1    1    2    0    0 -9.3797636650e-03 +3.0920932604e-03 +9.9305929919e-02 9.9797143467e-02 5.1099893000e-04 0.0000e+00 1.0000e+00
<vert_displacement>
96.702873833503020
</vert_displacement>
</event>
<event>
 4   1200 +8.5212000e+10 9.86288200e-03 7.81665300e-03            nan
       50 -1    0    0    0    0 -7.8943207626e-02 -5.2782088835e-02 +2.4859388470e+01 2.4859570350e+01 4.9935713700e-03 0.0000e+00 0.0000e+00
       11 -1    0    0    0    0 -1.1237807339e-17 -7.5136919708e-18 +3.5388100711e-15 5.1100000000e-04 5.1099893000e-04 0.0000e+00 1.0000e+00
       50  1    1    2    0    0 -7.2443233636e-02 -4.6889440554e-02 +2.4788433284e+01 2.4788583991e+01 4.9935713700e-03 0.0000e+00 0.0000e+00
       11  1    1    2    0    0 -6.4999739900e-03 -5.8926482808e-03 +7.0955185188e-02 7.1497359326e-02 5.1099893000e-04 0.0000e+00 1.0000e+00
<vert_displacement>
267.36329362889086
</vert_displacement>
</event>
<event>
 4   1200 +8.5212000e+10 1.89401600e-02 7.81665300e-03            nan
       50 -1    0    0    0    0 -7.6067541635e-03 -1.2347383488e-04 +8.3564061680e+00 8.3564111231e+00 4.9935713700e-03 0.0000e+00 0.0000e+00
       11 -1    0    0    0    0 -9.3482780748e-19 -1.5174248025e-20 +1.0269558722e-15 5.1100000000e-04 5.1099893000e-04 0.0000e+00 1.0000e+00
       50  1    1    2    0    0 -9.1683573683e-03 +1.8055464593e-02 +8.0158581517e+00 8.0158852850e+00 4.9935713700e-03 0.0000e+00 0.0000e+00
       11  1    1    2    0    0 +1.5616032047e-03 -1.8178938428e-02 +3.4054801634e-01 3.4103683813e-01 5.1099893000e-04 0.0000e+00 1.0000e+00
<vert_displacement>
105.81904564770551
</vert_displacement>
</event>
<event>
 4   1200 +8.5212000e+10 8.81613900e-03 7.81665300e-03            nan
       50 -1    0    0    0    0 +1.0445781197e-02 +1.1668858448e-02 +4.7168887532e+00 4.7169173961e+00 4.9935713700e-03 0.0000e+00 0.0000e+00
       11 -1    0    0    0    0 +4.3026020090e-19 +4.8063857412e-19 +1.9428795838e-16 5.1100000000e-04 5.1099893000e-04 0.0000e+00 1.0000e+00
       50  1    1    2    0    0 +1.7464291256e-02 +1.0164257854e-02 +4.6646373171e+00 4.6646837566e+00 4.9935713700e-03 0.0000e+00 0.0000e+00
       11  1    1    2    0    0 -7.0185100587e-03 +1.5046005940e-03 +5.2251436101e-02 5.2744639547e-02 5.1099893000e-04 0.0000e+00 1.0000e+00
<vert_displacement>
244.59461088431115
</vert_displacement>
</event>
<event>
 4   1200 +8.5212000e+10 2.33692800e-02 7.81665300e-03            nan
       50 -1    0    0    0    0 -1.8764715468e-02 -8.0862550880e-03 +1.7344213745e+01 1.7344226500e+01 4.9935713700e-03 0.0000e+00 0.0000e+00
       11 -1    0    0    0    0 +2.2071133757e-18 +9.5110857365e-19 -2.0400333921e-15 5.1100000000e-04 5.1099893000e-04 0.0000e+00 1.0000e+00
       50  1    1    2    0    0 -3.3407245826e-02 +9.1823522732e-03 +1.6818250668e+01 1.6818287096e+01 4.9935713700e-03 0.0000e+00 0.0000e+00
       11  1    1    2    0    0 +1.4642530358e-02 -1.7268607361e-02 +5.2596307697e-01 5.2645040408e-01 5.1099893000e-04 0.0000e+00 1.0000e+00
<vert_displacement>
468.22693653340372
</vert_displacement>
</event>
<event>
 4   1200 +8.5212000e+10 1.63417500e-02 7.81665300e-03            nan
       50 -1    0    0    0    0 +2.0249725070e-02 +2.4685094803e-02 +4.9400050882e+01 4.9400061452e+01 4.9935713700e-03 0.0000e+00 0.0000e+00
       11 -1    0    0    0    0 +3.4132110065e-20 +4.1608188254e-20 +8.3266709456e-17 5.1100000000e-04 5.1099893000e-04 0.0000e+00 1.0000e+00
       50  1    1    2    0    0 +3.4714962516e-02 +3.0047117493e-02 +4.9161987046e+01 4.9162008738e+01 4.9935713700e-03 0.0000e+00 0.0000e+00
       11  1    1    2    0    0 -1.4465237446e-02 -5.3620226897e-03 +2.3806383640e-01 2.3856371414e-01 5.1099893000e-04 0.0000e+00 1.0000e+00
<vert_displacement>
45.405456966592283
</vert_displacement>
</event>
<event>
 4   1200 +8.5212000e+10 1.53671900e-02 7.81665300e-03            nan
       50 -1    0    0    0    0 +2.6509263049e-03 -3.8591146209e-03 +3.3663982531e+00 3.3664052124e+00 4.9935713700e-03 0.0000e+00 0.0000e+00
       11 -1    0    0    0    0 +2.4588639673e-20 -3.5795177971e-20 +3.1224992369e-17 5.1100000000e-04 5.1099893000e-04 0.0000e+00 1.0000e+00
       50  1    1    2    0    0 -8.2224951958e-03 -1.3441202212e-02 +3.1450359135e+00 3.1450793485e+00 4.9935713700e-03 0.0000e+00 0.0000e+00
       11  1    1    2    0    0 +1.0873421501e-02 +9.5820875913e-03 +2.2136233954e-01 2.2183686390e-01 5.1099893000e-04 0.0000e+00 1.0000e+00
<vert_displacement>
183.98766132121594
</vert_displacement>
</event>
<event>
 4   1200 +8.5212000e+10 1.78076500e-02 7.81665300e-03            nan
       50 -1    0    0    0    0 +1.6812523301e-02 -2.4141842790e-03 +7.6412674108e+00 7.6412879195e+00 4.9935713700e-03 0.0000e+00 0.0000e+00
       11 -1    0    0    0    0 +1.3129709777e-18 -1.8853528625e-19 +5.9674340154e-16 5.1100000000e-04 5.1099893000e-04 0.0000e+00 1.0000e+00
       50  1    1    2    0    0 +3.0291427469e-03 -1.3266044525e-02 +7.3437658236e+00 7.3437801282e+00 4.9935713700e-03 0.0000e+00 0.0000e+00
       11  1    1    2    0    0 +1.3783380554e-02 +1.0851860246e-02 +2.9750158723e-01 2.9801879131e-01 5.1099893000e-04 0.0000e+00 1.0000e+00
<vert_displacement>
478.98640348164895
</vert_displacement>
</event>
<event>
 4   1200 +8.5212000e+10 2.90585000e-02 7.81665300e-03            nan
       50 -1    0    0    0    0 +7.9132261200e-03 +1.1079032212e-02 +6.9021260026e+00 6.9021412370e+00 4.9935713700e-03 0.0000e+00 0.0000e+00
       11 -1    0    0    0    0 +1.9092875316e-19 +2.6731269577e-19 +1.6653312970e-16 5.1100000000e-04 5.1099893000e-04 0.0000e+00 1.0000e+00
       50  1    1    2    0    0 +3.2852343236e-02 -2.3825162427e-03 +5.9753672344e+00 5.9754601057e+00 4.9935713700e-03 0.0000e+00 0.0000e+00
       11  1    1    2    0    0 -2.4939117116e-02 +1.3461548454e-02 +9.2675876819e-01 9.2719213132e-01 5.1099893000e-04 0.0000e+00 1.0000e+00
<vert_displacement>
431.17446145301500
</vert_displacement>
</event>
<event>
 4   1200 +8.5212000e+10 3.03741000e-02 7.81665300e-03            nan
       50 -1    0    0    0    0 +1.7880315819e-02 -1.1792388807e-02 +9.7482699186e+00 9.7482947282e+00 4.9935713700e-03 0.0000e+00 0.0000e+00
       11 -1    0    0    0    0 +1.5145506437e-18 -9.9887329948e-19 +8.2572638141e-16 5.1100000000e-04 5.1099893000e-04 0.0000e+00 1.0000e+00
       50  1    1    2    0    0 +4.5410673122e-02 -4.4541519036e-03 +8.7718098892e+00 8.7719299836e+00 4.9935713700e-03 0.0000e+00 0.0000e+00
       11  1    1    2    0    0 -2.7530357303e-02 -7.3382369034e-03 +9.7646002941e-01 9.7687574463e-01 5.1099893000e-04 0.0000e+00 1.0000e+00
<vert_displacement>
393.78973527946454
</vert_displacement>
</event>
<event>
 4   1200 +8.5212000e+10 2.51004100e-02 7.81665300e-03            nan
       50 -1    0    0    0    0 -3.4491396993e-02 -1.2681485288e-02 +2.5482385163e+01 2.5482412151e+01 4.9935713700e-03 0.0000e+00 0.0000e+00
       11 -1    0    0    0    0 -6.4053797029e-18 -2.3550721498e-18 +4.7323207215e-15 5.1100000000e-04 5.1099893000e-04 0.0000e+00 1.0000e+00
       50  1    1    2    0    0 -3.3073266144e-02 -3.6971060645e-02 +2.4875843034e+01 2.4875892995e+01 4.9935713700e-03 0.0000e+00 0.0000e+00
       11  1    1    2    0    0 -1.4181308490e-03 +2.4289575357e-02 +6.0654212925e-01 6.0703015596e-01 5.1099893000e-04 0.0000e+00 1.0000e+00
<vert_displacement>
220.62220269305280
</vert_displacement>
</event>
<event>
 4   1200 +8.5212000e+10 2.34185700e-02 7.81665300e-03            nan
       50 -1    0    0    0    0 +8.8513740248e-03 -3.5003726784e-02 +1.7982498145e+01 1.7982535085e+01 4.9935713700e-03 0.0000e+00 0.0000e+00
       11 -1    0    0    0    0 -1.7077332906e-19 +6.7534180973e-19 -3.4694399588e-16 5.1100000000e-04 5.1099893000e-04 0.0000e+00 1.0000e+00
       50  1    1    2    0    0 +1.3198374018e-02 -5.6387804877e-02 +1.7454705093e+01 1.7454801878e+01 4.9935713700e-03 0.0000e+00 0.0000e+00
       11  1    1    2    0    0 -4.3469999936e-03 +2.1384078093e-02 +5.2779305234e-01 5.2824420718e-01 5.1099893000e-04 0.0000e+00 1.0000e+00
<vert_displacement>
435.15418264996634
</vert_displacement>
</event>
<event>
 4   1200 +8.5212000e+10 1.42591100e-02 7.81665300e-03            nan
       50 -1    0    0    0    0 -2.1387432992e-02 +2.6628918236e-02 +1.1382346091e+01 1.1382398428e+01 4.9935713700e-03 0.0000e+00 0.0000e+00
       11 -1    0    0    0    0 -9.1266880646e-19 +1.1363394117e-18 +4.8572038660e-16 5.1100000000e-04 5.1099893000e-04 0.0000e+00 1.0000e+00
       50  1    1    2    0    0 -2.0220653984e-02 +3.9544140025e-02 +1.1204994754e+01 1.1205083891e+01 4.9935713700e-03 0.0000e+00 0.0000e+00
       11  1    1    2    0    0 -1.1667790087e-03 -1.2915221789e-02 +1.7735133630e-01 1.7782553791e-01 5.1099893000e-04 0.0000e+00 1.0000e+00
<vert_displacement>
24.500852855163451
</vert_displacement>
</event>
<event>
 4   1200 +8.5212000e+10 3.56608600e-02 7.81665300e-03            nan
       50 -1    0    0    0    0 +1.0318804703e-02 +4.8885116976e-03 +9.3032524089e+00 9.3032607561e+00 4.9935713700e-03 0.0000e+00 0.0000e+00
       11 -1    0    0    0    0 -2.9246109758e-19 -1.3855282058e-19 -2.6367776975e-16 5.1100000000e-04 5.1099893000e-04 0.0000e+00 1.0000e+00
       50  1    1    2    0    0 +3.0402352107e-02 +3.1994305260e-02 +7.8581969339e+00 7.8583224626e+00 4.9935713700e-03 0.0000e+00 0.0000e+00
       11  1    1    2    0    0 -2.0083547404e-02 -2.7105793563e-02 +1.4450554751e+00 1.4454492935e+00 5.1099893000e-04 0.0000e+00 1.0000e+00
<vert_displacement>
165.72352314642757
</vert_displacement>
</event>
<event>
 4   1200 +8.5212000e+10 2.78422100e-02 7.81665300e-03            nan
       50 -1    0    0    0    0 +1.5177033714e-02 -1.8283268257e-02 +1.4188700685e+01 1.4188721461e+01 4.9935713700e-03 0.0000e+00 0.0000e+00
       11 -1    0    0    0    0 +1.3656887528e-18 -1.6451998654e-18 +1.2767546879e-15 5.1100000000e-04 5.1099893000e-04 0.0000e+00 1.0000e+00
       50  1    1    2    0    0 -1.2396298697e-02 -1.1358721468e-02 +1.3412016965e+01 1.3412028433e+01 4.9935713700e-03 0.0000e+00 0.0000e+00
       11  1    1    2    0    0 +2.7573332411e-02 -6.9245467885e-03 +7.7668372096e-01 7.7720402825e-01 5.1099893000e-04 0.0000e+00 1.0000e+00
<vert_displacement>
457.32487793711391
</vert_displacement>
</event>
<event>
 4   1200 +8.5212000e+10 2.31174700e-02 7.81665300e-03            nan
       50 -1    0    0    0    0 -1.3840618988e-02 +3.1813826765e-02 +1.4295815170e+01 1.4295858141e+01 4.9935713700e-03 0.0000e+00 0.0000e+00
       11 -1    0    0    0    0 +7.5240830338e-19 -1.7294737642e-18 -7.7715382864e-16 5.1100000000e-04 5.1099893000e-04 0.0000e+00 1.0000e+00
       50  1    1    2    0    0 -2.1117435787e-02 +9.4733280019e-03 +1.3778575393e+01 1.3778595737e+01 4.9935713700e-03 0.0000e+00 0.0000e+00
       11  1    1    2    0    0 +7.2768167988e-03 +2.2340498763e-02 +5.1723977667e-01 5.1777340375e-01 5.1099893000e-04 0.0000e+00 1.0000e+00
<vert_displacement>
316.04809252949474
</vert_displacement>
</event>
<event>
 4   1200 +8.5212000e+10 5.39948800e-03 7.81665300e-03            nan
       50 -1    0    0    0    0 +2.3752723908e-03 -7.6978264575e-03 +8.1453465379e+00 8.1453520523e+00 4.9935713700e-03 0.0000e+00 0.0000e+00
       11 -1    0    0    0    0 +4.8967649244e-19 -1.5869525844e-18 +1.6792115035e-15 5.1100000000e-04 5.1099893000e-04 0.0000e+00 1.0000e+00
       50  1    1    2    0    0 +4.3563722041e-04 -7.0148087948e-03 +8.1412174901e+00 8.1412220553e+00 4.9935713700e-03 0.0000e+00 0.0000e+00
       11  1    1    2    0    0 +1.9396351703e-03 -6.8301766273e-04 +4.1290478407e-03 4.6409970587e-03 5.1099893000e-04 0.0000e+00 1.0000e+00
<vert_displacement>
422.31210859297926
</vert_displacement>
</event>
<event>
 4   1200 +8.5212000e+10 1.82074900e-02 7.81665300e-03            nan
       50 -1    0    0    0    0 +3.9018159218e-03 -7.6196579253e-04 +1.0173782526e+01 1.0173784528e+01 4.9935713700e-03 0.0000e+00 0.0000e+00
       11 -1    0    0    0    0 -2.4216754158e-19 +4.7291667892e-20 -6.3143929705e-16 5.1100000000e-04 5.1099893000e-04 0.0000e+00 1.0000e+00
       50  1    1    2    0    0 -7.3026424308e-03 +1.2814148353e-02 +9.8643620956e+00 9.8643743856e+00 4.9935713700e-03 0.0000e+00 0.0000e+00
       11  1    1    2    0    0 +1.1204458353e-02 -1.3576114146e-02 +3.0942043011e-01 3.0992114231e-01 5.1099893000e-04 0.0000e+00 1.0000e+00
<vert_displacement>
216.06628756271519
</vert_displacement>
</event>
<event>
 4   1200 +8.5212000e+10 2.17636800e-02 7.81665300e-03            nan
       50 -1    0    0    0    0 +5.8372281284e-03 +1.6730902925e-03 +1.6566193683e+01 1.6566195548e+01 4.9935713700e-03 0.0000e+00 0.0000e+00
       11 -1    0    0    0    0 -1.1735872628e-19 -3.3637839973e-20 -3.3306688501e-16 5.1100000000e-04 5.1099893000e-04 0.0000e+00 1.0000e+00
       50  1    1    2    0    0 +2.0072077076e-02 -1.3913971980e-02 +1.6114796775e+01 1.6114816056e+01 4.9935713700e-03 0.0000e+00 0.0000e+00
       11  1    1    2    0    0 -1.4234848947e-02 +1.5587062273e-02 +4.5139690744e-01 4.5189049182e-01 5.1099893000e-04 0.0000e+00 1.0000e+00
<vert_displacement>
490.41766242560732
</vert_displacement>
</event>
<event>
 4   1200 +8.5212000e+10 2.09113600e-02 7.81665300e-03            nan
       50 -1    0    0    0    0 -1.4257303385e-02 -6.2543146064e-03 +8.9383799312e+00 8.9383948849e+00 4.9935713700e-03 0.0000e+00 0.0000e+00
       11 -1    0    0    0    0 -1.4388367479e-19 -6.3118090747e-20 +9.0205483917e-17 5.1100000000e-04 5.1099893000e-04 0.0000e+00 1.0000e+00
       50  1    1    2    0    0 -2.7690074780e-02 -2.0562656217e-02 +8.5147199865e+00 8.5147913038e+00 4.9935713700e-03 0.0000e+00 0.0000e+00
       11  1    1    2    0    0 +1.3432771395e-02 +1.4308341610e-02 +4.2365994471e-01 4.2411458105e-01 5.1099893000e-04 0.0000e+00 1.0000e+00
<vert_displacement>
62.913237578657331
</vert_displacement>
</event>
<event>
 4   1200 +8.5212000e+10 1.63101700e-02 7.81665300e-03            nan
       50 -1    0    0    0    0 +1.2210444121e-04 +1.5791573736e-02 +9.3181395570e+00 9.3181542769e+00 4.9935713700e-03 0.0000e+00 0.0000e+00
       11 -1    0    0    0    0 -2.3640966161e-21 -3.0574486614e-19 -1.8041098241e-16 5.1100000000e-04 5.1099893000e-04 0.0000e+00 1.0000e+00
       50  1    1    2    0    0 +9.3768214937e-04 -1.2424262233e-04 +9.0759441369e+00 9.0759455599e+00 4.9935713700e-03 0.0000e+00 0.0000e+00
       11  1    1    2    0    0 -8.1557770816e-04 +1.5915816358e-02 +2.4219542005e-01 2.4271971694e-01 5.1099893000e-04 0.0000e+00 1.0000e+00
<vert_displacement>
152.80896018539397
</vert_displacement>
</event>
<event>
 4   1200 +8.5212000e+10 1.05096800e-02 7.81665300e-03            nan
       50 -1    0    0    0    0 -9.4373334004e-04 -2.3681263994e-02 +9.3361881135e+00 9.3362195304e+00 4.9935713700e-03 0.0000e+00 0.0000e+00
       11 -1    0    0    0    0 -1.5711460956e-19 -3.9425040830e-18 +1.5543072265e-15 5.1100000000e-04 5.1099893000e-04 0.0000e+00 1.0000e+00
       50  1    1    2    0    0 +4.0015423920e-03 -3.1286641506e-02 +9.2517219823e+00 9.2517770963e+00 4.9935713700e-03 0.0000e+00 0.0000e+00
       11  1    1    2    0    0 -4.9452757320e-03 +7.6053775123e-03 +8.4466131143e-02 8.4953434006e-02 5.1099893000e-04 0.0000e+00 1.0000e+00
<vert_displacement>
77.594507901899505
</vert_displacement>
</event>
<event>
 4   1200 +8.5212000e+10 1.58212300e-02 7.81665300e-03            nan
       50 -1    0    0    0    0 +1.5170703715e-02 -1.1966640467e-02 +1.4195944283e+01 1.4195958312e+01 4.9935713700e-03 0.0000e+00 0.0000e+00
       11 -1    0    0    0    0 +1.0603941491e-18 -8.3643816235e-19 +9.9226090911e-16 5.1100000000e-04 5.1099893000e-04 0.0000e+00 1.0000e+00
       50  1    1    2    0    0 +2.5228538265e-02 -2.2702078262e-02 +1.3971849392e+01 1.3971891506e+01 4.9935713700e-03 0.0000e+00 0.0000e+00
       11  1    1    2    0    0 -1.0057834551e-02 +1.0735437794e-02 +2.2409489095e-01 2.2457780597e-01 5.1099893000e-04 0.0000e+00 1.0000e+00
<vert_displacement>
194.36328235812493
</vert_displacement>
</event>
<event>
 4   1200 +8.5212000e+10 6.24332700e-03 7.81665300e-03            nan
       50 -1    0    0    0    0 -9.7061233036e-03 +1.9766402603e-03 +3.8636298909e+00 3.8636458152e+00 4.9935713700e-03 0.0000e+00 0.0000e+00
       11 -1    0    0    0    0 -1.7431674458e-20 +3.5499394002e-21 +6.9388711001e-18 5.1100000000e-04 5.1099893000e-04 0.0000e+00 1.0000e+00
       50  1    1    2    0    0 -1.1043310862e-02 -1.5177421933e-03 +3.8498358235e+00 3.8498552001e+00 4.9935713700e-03 0.0000e+00 0.0000e+00
       11  1    1    2    0    0 +1.3371875581e-03 +3.4943824536e-03 +1.3794067364e-02 1.4301615071e-02 5.1099893000e-04 0.0000e+00 1.0000e+00
<vert_displacement>
255.43511412761100
</vert_displacement>
</event>
<event>
 4   1200 +8.5212000e+10 2.01642900e-02 7.81665300e-03            nan
       50 -1    0    0    0    0 -3.1229908364e-02 -5.9460507749e-03 +9.7613644602e+00 9.7614175059e+00 4.9935713700e-03 0.0000e+00 0.0000e+00
       11 -1    0    0    0    0 -4.2401526579e-18 -8.0730826051e-19 +1.3253217069e-15 5.1100000000e-04 5.1099893000e-04 0.0000e+00 1.0000e+00
       50  1    1    2    0    0 -3.5151619774e-02 -2.4549785497e-02 +9.3723309616e+00 9.3724303635e+00 4.9935713700e-03 0.0000e+00 0.0000e+00
       11  1    1    2    0    0 +3.9217114096e-03 +1.8603734722e-02 +3.8903349861e-01 3.8949814239e-01 5.1099893000e-04 0.0000e+00 1.0000e+00
<vert_displacement>
324.34841150885870
</vert_displacement>
</event>
<event>
 4   1200 +8.5212000e+10 5.28482600e-03 7.81665300e-03            nan
       50 -1    0    0    0    0 -6.5336491684e-02 -4.9471771100e-02 +2.1777827787e+01 2.1777982560e+01 4.9935713700e-03 0.0000e+00 0.0000e+00
       11 -1    0    0    0    0 -3.2058938956e-18 -2.4274527892e-18 +1.0685820950e-15 5.1100000000e-04 5.1099893000e-04 0.0000e+00 1.0000e+00
       50  1    1    2    0    0 -6.7056797799e-02 -4.9403216639e-02 +2.1774893113e+01 2.1775052981e+01 4.9935713700e-03 0.0000e+00 0.0000e+00
       11  1    1    2    0    0 +1.7203061142e-03 -6.8554461149e-05 +2.9346742669e-03 3.4405792826e-03 5.1099893000e-04 0.0000e+00 1.0000e+00
<vert_displacement>
199.22703007298870
</vert_displacement>
</event>
<event>
 4   1200 +8.5212000e+10 3.64243800e-02 7.81665300e-03            nan
       50 -1    0    0    0    0 +7.2233412893e-02 +4.7359056409e-02 +3.6963712422e+01 3.6963813677e+01 4.9935713700e-03 0.0000e+00 0.0000e+00
       11 -1    0    0    0    0 +1.8170062116e-18 +1.1913004831e-18 +9.2980924459e-16 5.1100000000e-04 5.1099893000e-04 0.0000e+00 1.0000e+00
       50  1    1    2    0    0 +9.4967571603e-02 +7.1374656452e-02 +3.5642596587e+01 3.5642794918e+01 4.9935713700e-03 0.0000e+00 0.0000e+00
       11  1    1    2    0    0 -2.2734158710e-02 -2.4015600043e-02 +1.3211158356e+00 1.3215297587e+00 5.1099893000e-04 0.0000e+00 1.0000e+00
<vert_displacement>
478.43223299506434
</vert_displacement>
</event>
<event>
 4   1200 +8.5212000e+10 1.03066100e-02 7.81665300e-03            nan
       50 -1    0    0    0    0 +1.4784050389e-02 +1.4675587023e-02 +1.4304744353e+01 1.4304760393e+01 4.9935713700e-03 0.0000e+00 0.0000e+00
       11 -1    0    0    0    0 +1.6063905416e-18 +1.5946052378e-18 +1.5543105864e-15 5.1100000000e-04 5.1099893000e-04 0.0000e+00 1.0000e+00
       50  1    1    2    0    0 +2.3713212466e-02 +1.4871435724e-02 +1.4224743348e+01 1.4224771764e+01 4.9935713700e-03 0.0000e+00 0.0000e+00
       11  1    1    2    0    0 -8.9291620770e-03 -1.9584870130e-04 +8.0001005313e-02 8.0499628963e-02 5.1099893000e-04 0.0000e+00 1.0000e+00
<vert_displacement>
152.55343698406654
</vert_displacement>
</event>
<event>
 4   1200 +8.5212000e+10 3.12190500e-02 7.81665300e-03            nan
       50 -1    0    0    0    0 -7.0111997052e-03 +7.5957998944e-03 +4.3851005978e+00 4.3851156246e+00 4.9935713700e-03 0.0000e+00 0.0000e+00
       11 -1    0    0    0    0 +1.2203783722e-19 -1.3221346276e-19 -7.6327620873e-17 5.1100000000e-04 5.1099893000e-04 0.0000e+00 1.0000e+00
       50  1    1    2    0    0 +1.3430753240e-02 -2.4199746884e-02 +1.3669066302e+00 1.3671959202e+00 4.9935713700e-03 0.0000e+00 0.0000e+00
       11  1    1    2    0    0 -2.0441952945e-02 +3.1795546779e-02 +3.0181939676e+00 3.0184307044e+00 5.1099893000e-04 0.0000e+00 1.0000e+00
<vert_displacement>
9.9253892994994075
</vert_displacement>
</event>
<event>
 4   1200 +8.5212000e+10 4.99877000e-03 7.81665300e-03            nan
       50 -1    0    0    0    0 -4.8868295650e-03 +8.2262275064e-02 +3.1954374527e+01 3.1954481177e+01 4.9935713700e-03 0.0000e+00 0.0000e+00
       11 -1    0    0    0    0 +4.9875071634e-19 -8.3957027904e-18 -3.2612692899e-15 5.1100000000e-04 5.1099893000e-04 0.0000e+00 1.0000e+00
       50  1    1    2    0    0 -5.1122802804e-03 +8.2228803934e-02 +3.1954323754e+01 3.1954430353e+01 4.9935713700e-03 0.0000e+00 0.0000e+00
       11  1    1    2    0    0 +2.2545071543e-04 +3.3471129650e-05 +5.0773263106e-05 5.6182396916e-04 5.1099893000e-04 0.0000e+00 1.0000e+00
<vert_displacement>
166.22145614265006
</vert_displacement>
</event>
<event>
 4   1200 +8.5212000e+10 3.24436000e-02 7.81665300e-03            nan
       50 -1    0    0    0    0 +6.4459318650e-02 -4.5490585472e-02 +2.7651358943e+01 2.7651471945e+01 4.9935713700e-03 0.0000e+00 0.0000e+00
       11 -1    0    0    0    0 -9.3494389179e-18 +6.5981375404e-18 -4.0106643516e-15 5.1100000000e-04 5.1099893000e-04 0.0000e+00 -1.0000e+00
       50  1    1    2    0    0 +8.8770511866e-02 -6.1440987863e-02 +2.6606190274e+01 2.6606409773e+01 4.9935713700e-03 0.0000e+00 0.0000e+00
       11  1    1    2    0    0 -2.4311193216e-02 +1.5950402391e-02 +1.0451686694e+00 1.0455731720e+00 5.1099893000e-04 0.0000e+00 -1.0000e+00
<vert_displacement>
325.94110120739776
</vert_displacement>
</event>
<event>
 4   1200 +8.5212000e+10 7.00901200e-03 7.81665300e-03            nan
       50 -1    0    0    0    0 -1.2222391580e-02 -1.1171344847e-02 +5.5332606327e+00 5.5332876621e+00 4.9935713700e-03 0.0000e+00 0.0000e+00
       11 -1    0    0    0    0 -6.2841598768e-19 -5.7437627162e-19 +2.8449337619e-16 5.1100000000e-04 5.1099893000e-04 0.0000e+00 1.0000e+00
       50  1    1    2    0    0 -7.3385824606e-03 -1.2044768736e-02 +5.5094949959e+00 5.5095153123e+00 4.9935713700e-03 0.0000e+00 0.0000e+00
       11  1    1    2    0    0 -4.8838091189e-03 +8.7342388870e-04 +2.3765636832e-02 2.4283349742e-02 5.1099893000e-04 0.0000e+00 1.0000e+00
<vert_displacement>
278.37362361586554
</vert_displacement>
</event>
<event>
 4   1200 +8.5212000e+10 3.12867700e-02 7.81665300e-03            nan
       50 -1    0    0    0    0 -1.4963315545e-01 +8.4902219533e-02 +4.6520555972e+01 4.6520874362e+01 4.9935713700e-03 0.0000e+00 0.0000e+00
       11 -1    0    0    0    0 +1.2364597402e-17 -7.0157029029e-18 -3.8441209355e-15 5.1100000000e-04 5.1099893000e-04 0.0000e+00 1.0000e+00
       50  1    1    2    0    0 -1.4195501352e-01 +1.1370230847e-01 +4.5567589868e+01 4.5567953111e+01 4.9935713700e-03 0.0000e+00 0.0000e+00
       11  1    1    2    0    0 -7.6781419258e-03 -2.8800088932e-02 +9.5296610429e-01 9.5343225036e-01 5.1099893000e-04 0.0000e+00 1.0000e+00
<vert_displacement>
104.29362000664872
</vert_displacement>
</event>
<event>
 4   1200 +8.5212000e+10 1.59697600e-02 7.81665300e-03            nan
       50 -1    0    0    0    0 +3.3324086124e-03 -5.4586551283e-03 +2.5119841193e+00 2.5119972240e+00 4.9935713700e-03 0.0000e+00 0.0000e+00
       11 -1    0    0    0    0 -1.1046162921e-19 +1.8094177782e-19 -8.3266456981e-17 5.1100000000e-04 5.1099893000e-04 0.0000e+00 1.0000e+00
       50  1    1    2    0    0 +1.4600076205e-02 -1.4689014164e-02 +2.2615597683e+00 2.2616601095e+00 4.9935713700e-03 0.0000e+00 0.0000e+00
       11  1    1    2    0    0 -1.1267667592e-02 +9.2303590361e-03 +2.5042435097e-01 2.5084811448e-01 5.1099893000e-04 0.0000e+00 1.0000e+00
<vert_displacement>
131.43678884742704
</vert_displacement>
</event>
<event>
 4   1200 +8.5212000e+10 5.82606400e-03 7.81665300e-03            nan
       50 -1    0    0    0    0 +4.5405263281e-03 -1.9000738060e-03 +1.1271180258e+01 1.1271182439e+01 4.9935713700e-03 0.0000e+00 0.0000e+00
       11 -1    0    0    0    0 +7.4913795756e-19 -3.1349172042e-19 +1.8596233889e-15 5.1100000000e-04 5.1099893000e-04 0.0000e+00 1.0000e+00
       50  1    1    2    0    0 +7.0486464139e-03 -2.5579735721e-04 +1.1262358840e+01 1.1262362155e+01 4.9935713700e-03 0.0000e+00 0.0000e+00
       11  1    1    2    0    0 -2.5081200857e-03 -1.6442764488e-03 +8.8214183529e-03 9.3312835702e-03 5.1099893000e-04 0.0000e+00 1.0000e+00
<vert_displacement>
312.62010336550105
</vert_displacement>
</event>
<event>
 4   1200 +8.5212000e+10 8.50699400e-03 7.81665300e-03            nan
       50 -1    0    0    0    0 -4.9014487883e-04 +1.2599428902e-03 +5.6980822211e+00 5.6980845695e+00 4.9935713700e-03 0.0000e+00 0.0000e+00
       11 -1    0    0    0    0 -1.4325085883e-20 +3.6823377922e-20 +1.6653344901e-16 5.1100000000e-04 5.1099893000e-04 0.0000e+00 1.0000e+00
       50  1    1    2    0    0 -7.3330187821e-03 +5.0585438690e-04 +5.6512794504e+00 5.6512864369e+00 4.9935713700e-03 0.0000e+00 0.0000e+00
       11  1    1    2    0    0 +6.8428739032e-03 +7.5408850332e-04 +4.6802770637e-02 4.7309132648e-02 5.1099893000e-04 0.0000e+00 1.0000e+00
<vert_displacement>
207.34431433143914
</vert_displacement>
</event>
<event>
 4   1200 +8.5212000e+10 9.89834000e-03 7.81665300e-03            nan
       50 -1    0    0    0    0 -1.1857459713e-02 +5.8414565948e-02 +3.1941816777e+01 3.1941872782e+01 4.9935713700e-03 0.0000e+00 0.0000e+00
       11 -1    0    0    0    0 -3.3486124447e-19 +1.6496597687e-18 +9.0205463692e-16 5.1100000000e-04 5.1099893000e-04 0.0000e+00 1.0000e+00
       50  1    1    2    0    0 -1.3527275720e-02 +6.6659924213e-02 +3.1870169994e+01 3.1870242969e+01 4.9935713700e-03 0.0000e+00 0.0000e+00
       11  1    1    2    0    0 +1.6698160068e-03 -8.2453582655e-03 +7.1646783259e-02 7.2140812926e-02 5.1099893000e-04 0.0000e+00 1.0000e+00
<vert_displacement>
139.08188418943911
</vert_displacement>
</event>
<event>
 4   1200 +8.5212000e+10 1.08424000e-02 7.81665300e-03            nan
       50 -1    0    0    0    0 -2.2110466081e-02 -4.6985070741e-03 +2.3439565707e+01 2.3439577139e+01 4.9935713700e-03 0.0000e+00 0.0000e+00
       11 -1    0    0    0    0 -1.3614500646e-18 -2.8931017267e-19 +1.4432892609e-15 5.1100000000e-04 5.1099893000e-04 0.0000e+00 1.0000e+00
       50  1    1    2    0    0 -1.5306150026e-02 +2.2105763166e-03 +2.3348589842e+01 2.3348595498e+01 4.9935713700e-03 0.0000e+00 0.0000e+00
       11  1    1    2    0    0 -6.8043160543e-03 -6.9090833906e-03 +9.0975865465e-02 9.1492641055e-02 5.1099893000e-04 0.0000e+00 1.0000e+00
<vert_displacement>
108.03058551433774
</vert_displacement>
</event>
<event>
 4   1200 +8.5212000e+10 1.16667200e-02 7.81665300e-03            nan
       50 -1    0    0    0    0 +1.4778399499e-02 +2.5970880964e-02 +1.3645935241e+01 1.3645968870e+01 4.9935713700e-03 0.0000e+00 0.0000e+00
       11 -1    0    0    0    0 -1.0896356524e-18 -1.9148756823e-18 -1.0061372038e-15 5.1100000000e-04 5.1099893000e-04 0.0000e+00 1.0000e+00
       50  1    1    2    0    0 +1.2809503176e-02 +3.6142588568e-02 +1.3536247311e+01 1.3536302544e+01 4.9935713700e-03 0.0000e+00 0.0000e+00
       11  1    1    2    0    0 +1.9688963224e-03 -1.0171707603e-02 +1.0968792968e-01 1.1017732628e-01 5.1099893000e-04 0.0000e+00 1.0000e+00
<vert_displacement>
62.630222392046740
</vert_displacement>
</event>
<event>
 4   1200 +8.5212000e+10 7.01811500e-03 7.81665300e-03            nan
       50 -1    0    0    0    0 -3.2409906278e-04 +1.0884405619e-02 +1.7054241896e+01 1.7054246103e+01 4.9935713700e-03 0.0000e+00 0.0000e+00
       11 -1    0    0    0    0 -8.0702490476e-20 +2.7102782503e-18 +4.2466022035e-15 5.1100000000e-04 5.1099893000e-04 0.0000e+00 1.0000e+00
       50  1    1    2    0    0 -5.2506851407e-03 +1.1075281280e-02 +1.7030412921e+01 1.7030418064e+01 4.9935713700e-03 0.0000e+00 0.0000e+00
       11  1    1    2    0    0 +4.9265860779e-03 -1.9087566076e-04 +2.3828974346e-02 2.4339039056e-02 5.1099893000e-04 0.0000e+00 1.0000e+00
<vert_displacement>
239.94449201805719
</vert_displacement>
</event>
<event>
 4   1200 +8.5212000e+10 9.93712400e-03 7.81665300e-03            nan
       50 -1    0    0    0    0 -3.4975912395e-03 -1.3769008730e-02 +8.1935236419e+00 8.1935374793e+00 4.9935713700e-03 0.0000e+00 0.0000e+00
       11 -1    0    0    0    0 -4.9761930162e-19 -1.9589837803e-18 +1.1657324236e-15 5.1100000000e-04 5.1099893000e-04 0.0000e+00 1.0000e+00
       50  1    1    2    0    0 -2.3070721915e-03 -2.2159253516e-02 +8.1206335226e+00 8.1206656193e+00 4.9935713700e-03 0.0000e+00 0.0000e+00
       11  1    1    2    0    0 -1.1905190480e-03 +8.3902447866e-03 +7.2890119233e-02 7.3382860021e-02 5.1099893000e-04 0.0000e+00 1.0000e+00
<vert_displacement>
397.08772383454078
</vert_displacement>
</event>
<event>
 4   1200 +8.5212000e+10 1.09103400e-02 7.81665300e-03            nan
       50 -1    0    0    0    0 -2.3224693545e-02 +6.3561406622e-03 +6.6845842578e+00 6.6846294903e+00 4.9935713700e-03 0.0000e+00 0.0000e+00
       11 -1    0    0    0    0 +2.5072426055e-18 -6.8618286153e-19 -7.2164028425e-16 5.1100000000e-04 5.1099893000e-04 0.0000e+00 1.0000e+00
       50  1    1    2    0    0 -1.5422364707e-02 +8.8306099933e-05 +6.5912260017e+00 6.5912459367e+00 4.9935713700e-03 0.0000e+00 0.0000e+00
       11  1    1    2    0    0 -7.8023288382e-03 +6.2678345622e-03 +9.3358256172e-02 9.3894553627e-02 5.1099893000e-04 0.0000e+00 1.0000e+00
<vert_displacement>
162.72566946893110
</vert_displacement>
</event>
<event>
 4   1200 +8.5212000e+10 2.77139800e-02 7.81665300e-03            nan
       50 -1    0    0    0    0 -5.1037486661e-02 +1.3237948338e-02 +1.6439271320e+01 1.6439356634e+01 4.9935713700e-03 0.0000e+00 0.0000e+00
       11 -1    0    0    0    0 -6.8074084925e-18 +1.7656849471e-18 +2.1926791956e-15 5.1100000000e-04 5.1099893000e-04 0.0000e+00 1.0000e+00
       50  1    1    2    0    0 -2.1439146663e-02 +1.3890257863e-02 +1.5676777641e+01 1.5676799250e+01 4.9935713700e-03 0.0000e+00 0.0000e+00
       11  1    1    2    0    0 -2.9598339999e-02 -6.5230952566e-04 +7.6249367901e-01 7.6306838414e-01 5.1099893000e-04 0.0000e+00 1.0000e+00
<vert_displacement>
155.56467617652038
</vert_displacement>
</event>
<event>
 4   1200 +8.5212000e+10 1.47625800e-02 7.81665300e-03            nan
       50 -1    0    0    0    0 -6.1048975432e-03 -5.4231928448e-03 +1.5566125472e+01 1.5566128415e+01 4.9935713700e-03 0.0000e+00 0.0000e+00
       11 -1    0    0    0    0 -1.0831063759e-18 -9.6216106923e-19 +2.7616793938e-15 5.1100000000e-04 5.1099893000e-04 0.0000e+00 1.0000e+00
       50  1    1    2    0    0 -1.6912164986e-02 -1.3992238310e-02 +1.5374916207e+01 1.5374932686e+01 4.9935713700e-03 0.0000e+00 0.0000e+00
       11  1    1    2    0    0 +1.0807267443e-02 +8.5690454647e-03 +1.9120926525e-01 1.9170672864e-01 5.1099893000e-04 0.0000e+00 1.0000e+00
<vert_displacement>
219.30213309875487
</vert_displacement>
</event>
<event>
 4   1200 +8.5212000e+10 1.23441600e-02 7.81665300e-03            nan
       50 -1    0    0    0    0 +6.0788272038e-02 -3.3924753802e-02 +3.1586338807e+01 3.1586415914e+01 4.9935713700e-03 0.0000e+00 0.0000e+00
       11 -1    0    0    0    0 -3.5254424386e-18 +1.9674809427e-18 -1.8318635417e-15 5.1100000000e-04 5.1099893000e-04 0.0000e+00 1.0000e+00
       50  1    1    2    0    0 +5.5058128373e-02 -2.3925667089e-02 +3.1461162512e+01 3.1461220182e+01 4.9935713700e-03 0.0000e+00 0.0000e+00
       11  1    1    2    0    0 +5.7301436654e-03 -9.9990867127e-03 +1.2517629518e-01 1.2570673122e-01 5.1099893000e-04 0.0000e+00 1.0000e+00
<vert_displacement>
277.53813913471350
</vert_displacement>
</event>
<event>
 4   1200 +8.5212000e+10 3.41535800e-02 7.81665300e-03            nan
       50 -1    0    0    0    0 -7.4366782632e-03 -1.8903796331e-03 +2.3739376466e+01 2.3739378231e+01 4.9935713700e-03 0.0000e+00 0.0000e+00
       11 -1    0    0    0    0 -4.9995135021e-19 -1.2708602101e-19 +1.5959455145e-15 5.1100000000e-04 5.1099893000e-04 0.0000e+00 1.0000e+00
       50  1    1    2    0    0 +2.1757040531e-02 -1.9421158846e-02 +2.2564163109e+01 2.2564182509e+01 4.9935713700e-03 0.0000e+00 0.0000e+00
       11  1    1    2    0    0 -2.9193718794e-02 +1.7530779212e-02 +1.1752133572e+00 1.1757067226e+00 5.1099893000e-04 0.0000e+00 1.0000e+00
<vert_displacement>
138.18798190998479
</vert_displacement>
</event>
<event>
 4   1200 +8.5212000e+10 9.39208800e-03 7.81665300e-03            nan
       50 -1    0    0    0    0 -8.9704553030e-03 +1.6760025104e-02 +1.2173172602e+01 1.2173188469e+01 4.9935713700e-03 0.0000e+00 0.0000e+00
       11 -1    0    0    0    0 +7.6699349985e-20 -1.4330187129e-19 -1.0408328165e-16 5.1100000000e-04 5.1099893000e-04 0.0000e+00 1.0000e+00
       50  1    1    2    0    0 -1.3091248315e-02 +9.8983146612e-03 +1.2110944058e+01 1.2110956208e+01 4.9935713700e-03 0.0000e+00 0.0000e+00
       11  1    1    2    0    0 +4.1207930115e-03 +6.8617104431e-03 +6.2228543792e-02 6.2743260894e-02 5.1099893000e-04 0.0000e+00 1.0000e+00
<vert_displacement>
465.58314706007923
</vert_displacement>
</event>
<event>
 4   1200 +8.5212000e+10 8.51984900e-03 7.81665300e-03            nan
       50 -1    0    0    0    0 -1.3969116548e-02 +7.3292572011e-05 +8.4995895030e+00 8.4996024493e+00 4.9935713700e-03 0.0000e+00 0.0000e+00
       11 -1    0    0    0    0 +7.9828632547e-20 -4.1884150506e-22 -4.8572191726e-17 5.1100000000e-04 5.1099893000e-04 0.0000e+00 1.0000e+00
       50  1    1    2    0    0 -9.8000691550e-03 -5.4865794712e-03 +8.4527078334e+00 8.4527167702e+00 4.9935713700e-03 0.0000e+00 0.0000e+00
       11  1    1    2    0    0 -4.1690473933e-03 +5.5598720432e-03 +4.6881669540e-02 4.7396679125e-02 5.1099893000e-04 0.0000e+00 1.0000e+00
<vert_displacement>
476.24652334004696
</vert_displacement>
</event>
<event>
 4   1200 +8.5212000e+10 7.52999900e-03 7.81665300e-03            nan
       50 -1    0    0    0    0 -4.4531687733e-04 -7.8947629355e-03 +5.0462570788e+00 5.0462657447e+00 4.9935713700e-03 0.0000e+00 0.0000e+00
       11 -1    0    0    0    0 +1.6533060749e-20 +2.9310498177e-19 -1.8734990540e-16 5.1100000000e-04 5.1099893000e-04 0.0000e+00 1.0000e+00
       50  1    1    2    0    0 -6.0777998910e-03 -7.7500700974e-03 +5.0149774482e+00 5.0149896057e+00 4.9935713700e-03 0.0000e+00 0.0000e+00
       11  1    1    2    0    0 +5.6324830136e-03 -1.4469283802e-04 +3.1279630523e-02 3.1787139011e-02 5.1099893000e-04 0.0000e+00 1.0000e+00
<vert_displacement>
203.00891586630812
</vert_displacement>
</event>
<event>
 4   1200 +8.5212000e+10 2.84213000e-02 7.81665300e-03            nan
       50 -1    0    0    0    0 +5.5958515785e-02 -1.9565462820e-02 +2.7655154142e+01 2.7655218128e+01 4.9935713700e-03 0.0000e+00 0.0000e+00
       11 -1    0    0    0    0 -6.8797939762e-18 +2.4054668242e-18 -3.4000502016e-15 5.1100000000e-04 5.1099893000e-04 0.0000e+00 1.0000e+00
       50  1    1    2    0    0 +2.8108476310e-02 -9.3365776830e-03 +2.6866717519e+01 2.6866734309e+01 4.9935713700e-03 0.0000e+00 0.0000e+00
       11  1    1    2    0    0 +2.7850039475e-02 -1.0228885137e-02 +7.8843662286e-01 7.8899481885e-01 5.1099893000e-04 0.0000e+00 1.0000e+00
<vert_displacement>
462.68986666041661
</vert_displacement>
</event>
<event>
 4   1200 +8.5212000e+10 2.30807500e-02 7.81665300e-03            nan
       50 -1    0    0    0    0 +1.2043001633e-02 -2.5381365867e-02 +1.1042526255e+01 1.1042563121e+01 4.9935713700e-03 0.0000e+00 0.0000e+00
       11 -1    0    0    0    0 -1.2864830476e-19 +2.7113420647e-19 -1.1796081461e-16 5.1100000000e-04 5.1099893000e-04 0.0000e+00 1.0000e+00
       50  1    1    2    0    0 +8.3210544232e-03 -4.6494893664e-02 +1.0520913722e+01 1.0521020934e+01 4.9935713700e-03 0.0000e+00 0.0000e+00
       11  1    1    2    0    0 +3.7219472095e-03 +2.1113527797e-02 +5.2161253305e-01 5.2205318666e-01 5.1099893000e-04 0.0000e+00 1.0000e+00
<vert_displacement>
160.87439565437487
</vert_displacement>
</event>
<event>
 4   1200 +8.5212000e+10 4.73081100e-02 7.81665300e-03            nan
       50 -1    0    0    0    0 +5.6917046131e-02 +7.6614128169e-02 +6.0961157261e+01 6.0961232179e+01 4.9935713700e-03 0.0000e+00 0.0000e+00
       11 -1    0    0    0    0 -4.2110676829e-18 -5.6683770700e-18 -4.5102755098e-15 5.1100000000e-04 5.1099893000e-04 0.0000e+00 1.0000e+00
       50  1    1    2    0    0 +3.1650197330e-02 +1.1473201765e-01 +5.8712666917e+01 5.8712787760e+01 4.9935713700e-03 0.0000e+00 0.0000e+00
       11  1    1    2    0    0 +2.5266848801e-02 -3.8117889478e-02 +2.2484903442e+00 2.2489554189e+00 5.1099893000e-04 0.0000e+00 1.0000e+00
<vert_displacement>
116.62734437571591
</vert_displacement>
</event>
<event>
 4   1200 +8.5212000e+10 7.89190900e-03 7.81665300e-03            nan
       50 -1    0    0    0    0 +2.2720974160e-02 -2.0225008615e-02 +7.9735254334e+00 7.9735850198e+00 4.9935713700e-03 0.0000e+00 0.0000e+00
       11 -1    0    0    0    0 -2.3924838844e-18 +2.1296625238e-18 -8.3960005268e-16 5.1100000000e-04 5.1099893000e-04 0.0000e+00 1.0000e+00
       50  1    1    2    0    0 +2.5597924574e-02 -1.4797400299e-02 +7.9368162795e+00 7.9368729237e+00 4.9935713700e-03 0.0000e+00 0.0000e+00
       11  1    1    2    0    0 -2.8769504144e-03 -5.4276083162e-03 +3.6709153942e-02 3.7223096040e-02 5.1099893000e-04 0.0000e+00 1.0000e+00
<vert_displacement>
170.10182243349863
</vert_displacement>
</event>
<event>
 4   1200 +8.5212000e+10 1.73016900e-02 7.81665300e-03            nan
       50 -1    0    0    0    0 +4.8127634107e-03 -7.4818221637e-03 +1.8327121966e+01 1.8327124805e+01 4.9935713700e-03 0.0000e+00 0.0000e+00
       11 -1    0    0    0    0 +4.5554412225e-19 -7.0817944279e-19 +1.7347232716e-15 5.1100000000e-04 5.1099893000e-04 0.0000e+00 1.0000e+00
       50  1    1    2    0    0 +6.4743700368e-03 -2.3845032793e-02 +1.8054542608e+01 1.8054560206e+01 4.9935713700e-03 0.0000e+00 0.0000e+00
       11  1    1    2    0    0 -1.6616066261e-03 +1.6363210630e-02 +2.7257935715e-01 2.7307559880e-01 5.1099893000e-04 0.0000e+00 1.0000e+00
<vert_displacement>
180.65892798151916
</vert_displacement>
</event>
<event>
 4   1200 +8.5212000e+10 5.61957300e-03 7.81665300e-03            nan
       50 -1    0    0    0    0 -1.4374744662e-02 +5.5408981307e-03 +2.5395640324e+01 2.5395645488e+01 4.9935713700e-03 0.0000e+00 0.0000e+00
       11 -1    0    0    0    0 -1.5239224407e-18 +5.8741210375e-19 +2.6922903393e-15 5.1100000000e-04 5.1099893000e-04 0.0000e+00 1.0000e+00
       50  1    1    2    0    0 -1.6946067218e-02 +5.4245897146e-03 +2.5389136271e+01 2.5389142997e+01 4.9935713700e-03 0.0000e+00 0.0000e+00
       11  1    1    2    0    0 +2.5713225558e-03 +1.1630841610e-04 +6.5040529810e-03 7.0134907443e-03 5.1099893000e-04 0.0000e+00 1.0000e+00
<vert_displacement>
247.93067666026872
</vert_displacement>
</event>
<event>
 4   1200 +8.5212000e+10 6.90114200e-03 7.81665300e-03            nan
       50 -1    0    0    0    0 -9.9641605236e-02 +6.5328112008e-02 +3.3761451738e+01 3.3761662350e+01 4.9935713700e-03 0.0000e+00 0.0000e+00
       11 -1    0    0    0    0 +5.5702674677e-18 -3.6520392881e-18 -1.8873673887e-15 5.1100000000e-04 5.1099893000e-04 0.0000e+00 1.0000e+00
       50  1    1    2    0    0 -9.6186927464e-02 +6.1937934205e-02 +3.3739251814e+01 3.3739446145e+01 4.9935713700e-03 0.0000e+00 0.0000e+00
       11  1    1    2    0    0 -3.4546777717e-03 +3.3901778037e-03 +2.2199923911e-02 2.2727204967e-02 5.1099893000e-04 0.0000e+00 1.0000e+00
<vert_displacement>
301.34689709458854
</vert_displacement>
</event>
<event>
 4   1200 +8.5212000e+10 6.95209500e-03 7.81665300e-03            nan
       50 -1    0    0    0    0 +5.6680078095e-03 +9.8345943967e-03 +5.5528648265e+00 5.5528786735e+00 4.9935713700e-03 0.0000e+00 0.0000e+00
       11 -1    0    0    0    0 +6.0203481103e-19 +1.0445942169e-18 +5.8980474954e-16 5.1100000000e-04 5.1099893000e-04 0.0000e+00 1.0000e+00
       50  1    1    2    0    0 +3.9703532077e-03 +5.2559403988e-03 +5.5298846665e+00 5.5298908443e+00 4.9935713700e-03 0.0000e+00 0.0000e+00
       11  1    1    2    0    0 +1.6976546018e-03 +4.5786539978e-03 +2.2980159959e-02 2.3498829231e-02 5.1099893000e-04 0.0000e+00 1.0000e+00
<vert_displacement>
83.926920108845209
</vert_displacement>
</event>
<event>
 4   1200 +8.5212000e+10 5.42850100e-02 7.81665300e-03            nan
       50 -1    0    0    0    0 -1.1673122726e-01 -7.5067397859e-02 +4.2218413589e+01 4.2218641999e+01 4.9935713700e-03 0.0000e+00 0.0000e+00
       11 -1    0    0    0    0 +1.4964687244e-18 +9.6234757189e-19 -5.4123080013e-16 5.1100000000e-04 5.1099893000e-04 0.0000e+00 1.0000e+00
       50  1    1    2    0    0 -1.3122985864e-01 -1.1848739404e-01 +3.9133726891e+01 3.9134126615e+01 4.9935713700e-03 0.0000e+00 0.0000e+00
       11  1    1    2    0    0 +1.4498631378e-02 +4.3419996184e-02 +3.0846866980e+00 3.0850263844e+00 5.1099893000e-04 0.0000e+00 1.0000e+00
<vert_displacement>
10.617517492378507
</vert_displacement>
</event>
<event>
 4   1200 +8.5212000e+10 2.46365300e-02 7.81665300e-03            nan
       50 -1    0    0    0    0 +2.6905170815e-02 -1.2653095182e-02 +1.6906899792e+01 1.6906926672e+01 4.9935713700e-03 0.0000e+00 0.0000e+00
       11 -1    0    0    0    0 -7.9504891108e-19 +3.7389948630e-19 -4.9959958856e-16 5.1100000000e-04 5.1099893000e-04 0.0000e+00 1.0000e+00
       50  1    1    2    0    0 +4.4907230307e-02 +2.7302460150e-03 +1.6316742115e+01 1.6316804905e+01 4.9935713700e-03 0.0000e+00 0.0000e+00
       11  1    1    2    0    0 -1.8002059492e-02 -1.5383341197e-02 +5.9015767686e-01 5.9063276747e-01 5.1099893000e-04 0.0000e+00 1.0000e+00
<vert_displacement>
356.04809145285401
</vert_displacement>
</event>
<event>
 4   1200 +8.5212000e+10 1.91197900e-02 7.81665300e-03            nan
       50 -1    0    0    0    0 -4.2346314460e-02 +1.2130750060e-02 +1.2412729741e+01 1.2412808906e+01 4.9935713700e-03 0.0000e+00 0.0000e+00
       11 -1    0    0    0    0 -3.5508071855e-18 +1.0171830778e-18 +1.0408275317e-15 5.1100000000e-04 5.1099893000e-04 0.0000e+00 1.0000e+00
       50  1    1    2    0    0 -5.9230531467e-02 +7.9627004132e-03 +1.2069877101e+01 1.2070026091e+01 4.9935713700e-03 0.0000e+00 0.0000e+00
       11  1    1    2    0    0 +1.6884217007e-02 +4.1680496463e-03 +3.4285264047e-01 3.4329381529e-01 5.1099893000e-04 0.0000e+00 1.0000e+00
<vert_displacement>
254.49328929564061
</vert_displacement>
</event>
<event>
 4   1200 +8.5212000e+10 1.49691800e-02 7.81665300e-03            nan
       50 -1    0    0    0    0 -7.9035296176e-02 -1.7786002118e-03 +2.4281968603e+01 2.4282097807e+01 4.9935713700e-03 0.0000e+00 0.0000e+00
       11 -1    0    0    0    0 +4.7880755924e-18 +1.0775024166e-19 -1.4710377114e-15 5.1100000000e-04 5.1099893000e-04 0.0000e+00 1.0000e+00
       50  1    1    2    0    0 -7.7829007095e-02 -1.5864538161e-02 +2.4085521657e+01 2.4085653146e+01 4.9935713700e-03 0.0000e+00 0.0000e+00
       11  1    1    2    0    0 -1.2062890816e-03 +1.4085937949e-02 +1.9644694617e-01 1.9695566140e-01 5.1099893000e-04 0.0000e+00 1.0000e+00
<vert_displacement>
19.509402123163838
</vert_displacement>
</event>
<event>
 4   1200 +8.5212000e+10 9.30467700e-03 7.81665300e-03            nan
       50 -1    0    0    0    0 +3.2763721878e-02 +2.7758387393e-02 +1.4608708030e+01 1.4608771996e+01 4.9935713700e-03 0.0000e+00 0.0000e+00
       11 -1    0    0    0    0 -1.2294104025e-18 -1.0415925988e-18 -5.4817025020e-16 5.1100000000e-04 5.1099893000e-04 0.0000e+00 1.0000e+00
       50  1    1    2    0    0 +3.9239812250e-02 +3.1876872227e-02 +1.4548117442e+01 1.4548206141e+01 4.9935713700e-03 0.0000e+00 0.0000e+00
       11  1    1    2    0    0 -6.4760903717e-03 -4.1184848336e-03 +6.0590588281e-02 6.1076854634e-02 5.1099893000e-04 0.0000e+00 1.0000e+00
<vert_displacement>
4.5406493013556410
</vert_displacement>
</event>
<event>
 4   1200 +8.5212000e+10 1.74812100e-02 7.81665300e-03            nan
       50 -1    0    0    0    0 +1.2301334224e-03 +4.2433285476e-03 +1.7037196954e+00 1.7037327418e+00 4.9935713700e-03 0.0000e+00 0.0000e+00
       11 -1    0    0    0    0 +1.5030177727e-19 +5.1846394109e-19 +2.0816611721e-16 5.1100000000e-04 5.1099893000e-04 0.0000e+00 1.0000e+00
       50  1    1    2    0    0 +1.6067112501e-02 -3.9015732107e-03 +1.3577936806e+00 1.3579035272e+00 4.9935713700e-03 0.0000e+00 0.0000e+00
       11  1    1    2    0    0 -1.4836979079e-02 +8.1449017583e-03 +3.4592601483e-01 3.4634021457e-01 5.1099893000e-04 0.0000e+00 1.0000e+00
<vert_displacement>
325.60890122406505
</vert_displacement>
</event>
<event>
 4   1200 +8.5212000e+10 1.27999400e-02 7.81665300e-03            nan
       50 -1    0    0    0    0 +4.6840405126e-02 +5.5820324221e-02 +3.7003750652e+01 3.7003822738e+01 4.9935713700e-03 0.0000e+00 0.0000e+00
       11 -1    0    0    0    0 +8.7834331834e-19 +1.0467332354e-18 +6.9388804498e-16 5.1100000000e-04 5.1099893000e-04 0.0000e+00 1.0000e+00
       50  1    1    2    0    0 +5.6752675198e-02 +6.1713383159e-02 +3.6867311272e+01 3.6867406944e+01 4.9935713700e-03 0.0000e+00 0.0000e+00
       11  1    1    2    0    0 -9.9122700715e-03 -5.8930589385e-03 +1.3643938038e-01 1.3692679388e-01 5.1099893000e-04 0.0000e+00 1.0000e+00
<vert_displacement>
303.47632599661176
</vert_displacement>
</event>
<event>
 4   1200 +8.5212000e+10 1.27016500e-02 7.81665300e-03            nan
       50 -1    0    0    0    0 +1.1416422432e-02 +2.6364070422e-02 +1.9213444419e+01 1.9213466547e+01 4.9935713700e-03 0.0000e+00 0.0000e+00
       11 -1    0    0    0    0 +3.4633297983e-19 +7.9979057573e-19 +5.8286643631e-16 5.1100000000e-04 5.1099893000e-04 0.0000e+00 1.0000e+00
       50  1    1    2    0    0 +1.3413128900e-02 +1.4686869774e-02 +1.9079054066e+01 1.9079065088e+01 4.9935713700e-03 0.0000e+00 0.0000e+00
       11  1    1    2    0    0 -1.9967064684e-03 +1.1677200648e-02 +1.3439035233e-01 1.3491245966e-01 5.1099893000e-04 0.0000e+00 1.0000e+00
<vert_displacement>
250.52000276916911
</vert_displacement>
</event>
<event>
 4   1200 +8.5212000e+10 1.06711300e-02 7.81665300e-03            nan
       50 -1    0    0    0    0 -3.0147398927e-03 -1.1558629315e-03 +4.4747394468e+00 4.4747433979e+00 4.9935713700e-03 0.0000e+00 0.0000e+00
       11 -1    0    0    0    0 +4.5346519980e-19 +1.7386031095e-19 -6.7307253347e-16 5.1100000000e-04 5.1099893000e-04 0.0000e+00 1.0000e+00
       50  1    1    2    0    0 -1.0128060150e-02 +4.9894225887e-03 +4.3859316055e+00 4.3859489801e+00 4.9935713700e-03 0.0000e+00 0.0000e+00
       11  1    1    2    0    0 +7.1133202578e-03 -6.1452855202e-03 +8.8807841273e-02 8.9305417813e-02 5.1099893000e-04 0.0000e+00 1.0000e+00
<vert_displacement>
336.58799350222671
</vert_displacement>
</event>
<event>
 4   1200 +8.5212000e+10 3.68118000e-02 7.81665300e-03            nan
       50 -1    0    0    0    0 -1.6766330030e-02 -1.6238202502e-02 +7.0143505661e+00 7.0143911773e+00 4.9935713700e-03 0.0000e+00 0.0000e+00
       11 -1    0    0    0    0 +2.0068908655e-18 +1.9436752238e-18 -8.3960151406e-16 5.1100000000e-04 5.1099893000e-04 0.0000e+00 1.0000e+00
       50  1    1    2    0    0 -4.8825763208e-02 -1.6727402483e-02 +5.2846928131e+00 5.2849471923e+00 4.9935713700e-03 0.0000e+00 0.0000e+00
       11  1    1    2    0    0 +3.2059433178e-02 +4.8919998165e-04 +1.7296577530e+00 1.7299549850e+00 5.1099893000e-04 0.0000e+00 1.0000e+00
<vert_displacement>
433.93184573742388
</vert_displacement>
</event>
<event>
 4   1200 +8.5212000e+10 1.29179900e-02 7.81665300e-03            nan
       50 -1    0    0    0    0 -5.8159822755e-07 -3.0799782640e-03 +1.2154637950e+01 1.2154639366e+01 4.9935713700e-03 0.0000e+00 0.0000e+00
       11 -1    0    0    0    0 -2.0585573468e-23 -1.0901532335e-19 +4.3021140823e-16 5.1100000000e-04 5.1099893000e-04 0.0000e+00 1.0000e+00
       50  1    1    2    0    0 +2.7528994589e-03 +8.5468778418e-03 +1.2014124079e+01 1.2014128472e+01 4.9935713700e-03 0.0000e+00 0.0000e+00
       11  1    1    2    0    0 -2.7534810571e-03 -1.1626856106e-02 +1.4051387153e-01 1.4102189423e-01 5.1099893000e-04 0.0000e+00 1.0000e+00
<vert_displacement>
457.87523666807181
</vert_displacement>
</event>
<event>
 4   1200 +8.5212000e+10 2.10477500e-02 7.81665300e-03            nan
       50 -1    0    0    0    0 -2.9361404745e-03 -3.3757338065e-02 +2.0350697426e+01 2.0350726249e+01 4.9935713700e-03 0.0000e+00 0.0000e+00
       11 -1    0    0    0    0 -2.9232774007e-19 -3.3609448979e-18 +2.0261542113e-15 5.1100000000e-04 5.1099893000e-04 0.0000e+00 1.0000e+00
       50  1    1    2    0    0 +1.6368929683e-02 -2.6157343001e-02 +1.9933047402e+01 1.9933071911e+01 4.9935713700e-03 0.0000e+00 0.0000e+00
       11  1    1    2    0    0 -1.9305070157e-02 -7.5999950635e-03 +4.1765002441e-01 4.1816533771e-01 5.1099893000e-04 0.0000e+00 1.0000e+00
<vert_displacement>
423.68339617802849
</vert_displacement>
</event>
<event>
 4   1200 +8.5212000e+10 5.88659800e-03 7.81665300e-03            nan
       50 -1    0    0    0    0 +2.8061507461e-03 +3.8881665866e-03 +6.1270690789e+00 6.1270729901e+00 4.9935713700e-03 0.0000e+00 0.0000e+00
       11 -1    0    0    0    0 +6.9915105252e-20 +9.6873475709e-20 +1.5265561914e-16 5.1100000000e-04 5.1099893000e-04 0.0000e+00 1.0000e+00
       50  1    1    2    0    0 +5.5861493197e-03 +2.4808298585e-03 +6.1175459145e+00 6.1175510061e+00 4.9935713700e-03 0.0000e+00 0.0000e+00
       11  1    1    2    0    0 -2.7799985737e-03 +1.4073367281e-03 +9.5231643696e-03 1.0032984015e-02 5.1099893000e-04 0.0000e+00 1.0000e+00
<vert_displacement>
97.497873062657021
</vert_displacement>
</event>
<event>
 4   1200 +8.5212000e+10 8.21027000e-03 7.81665300e-03            nan
       50 -1    0    0    0    0 +3.1986077615e-02 -9.9371664745e-03 +1.1626908190e+01 1.1626957506e+01 4.9935713700e-03 0.0000e+00 0.0000e+00
       11 -1    0    0    0    0 -1.4316816286e-18 +4.4478284751e-19 -5.2041488342e-16 5.1100000000e-04 5.1099893000e-04 0.0000e+00 1.0000e+00
       50  1    1    2    0    0 +3.7403341398e-02 -6.4563042508e-03 +1.1585185823e+01 1.1585249077e+01 4.9935713700e-03 0.0000e+00 0.0000e+00
       11  1    1    2    0    0 -5.4172637828e-03 -3.4808622237e-03 +4.1722367149e-02 4.2219429048e-02 5.1099893000e-04 0.0000e+00 1.0000e+00
<vert_displacement>
450.86886803761229
</vert_displacement>
</event>
<event>
 4   1200 +8.5212000e+10 1.51939300e-02 7.81665300e-03            nan
       50 -1    0    0    0    0 -4.6430757515e-02 -3.2735485422e-02 +2.4963547858e+01 2.4963613000e+01 4.9935713700e-03 0.0000e+00 0.0000e+00
       11 -1    0    0    0    0 +6.0141533893e-18 +4.2402114705e-18 -3.2335161861e-15 5.1100000000e-04 5.1099893000e-04 0.0000e+00 1.0000e+00
       50  1    1    2    0    0 -5.8283506433e-02 -3.9974526418e-02 +2.4760369797e+01 2.4760471166e+01 4.9935713700e-03 0.0000e+00 0.0000e+00
       11  1    1    2    0    0 +1.1852748918e-02 +7.2390409959e-03 +2.0317806075e-01 2.0365283416e-01 5.1099893000e-04 0.0000e+00 1.0000e+00
<vert_displacement>
282.68565422649954
</vert_displacement>
</event>
<event>
 4   1200 +8.5212000e+10 1.67643300e-02 7.81665300e-03            nan
       50 -1    0    0    0    0 -1.1032886407e-02 +1.6335492813e-02 +1.7027885225e+01 1.7027897367e+01 4.9935713700e-03 0.0000e+00 0.0000e+00
       11 -1    0    0    0    0 -7.1035505558e-19 +1.0517646496e-18 +1.0963445022e-15 5.1100000000e-04 5.1099893000e-04 0.0000e+00 1.0000e+00
       50  1    1    2    0    0 +4.7917840871e-03 +1.2793483520e-02 +1.6773490868e+01 1.6773497175e+01 4.9935713700e-03 0.0000e+00 0.0000e+00
       11  1    1    2    0    0 -1.5824670494e-02 +3.5420092931e-03 +2.5439435704e-01 2.5491119246e-01 5.1099893000e-04 0.0000e+00 1.0000e+00
<vert_displacement>
85.191359085713685
</vert_displacement>
</event>
<event>
 4   1200 +8.5212000e+10 3.73900400e-02 7.81665300e-03            nan
       50 -1    0    0    0    0 -1.7593387853e-02 +2.3778080431e-02 +1.2262022330e+01 1.2262059023e+01 4.9935713700e-03 0.0000e+00 0.0000e+00
       11 -1    0    0    0    0 -3.7832056927e-19 +5.1131351165e-19 +2.6367720118e-16 5.1100000000e-04 5.1099893000e-04 0.0000e+00 1.0000e+00
       50  1    1    2    0    0 +1.3613334113e-02 +4.3862666976e-02 +1.0725539234e+01 1.0725638724e+01 4.9935713700e-03 0.0000e+00 0.0000e+00
       11  1    1    2    0    0 -3.1206721966e-02 -2.0084586544e-02 +1.5364830966e+00 1.5369312989e+00 5.1099893000e-04 0.0000e+00 1.0000e+00
<vert_displacement>
464.67147361919706
</vert_displacement>
</event>
<event>
 4   1200 +8.5212000e+10 1.45260300e-02 7.81665300e-03            nan
       50 -1    0    0    0    0 +4.0088316938e-03 +2.8951480706e-03 +4.2435576123e+00 4.2435634315e+00 4.9935713700e-03 0.0000e+00 0.0000e+00
       11 -1    0    0    0    0 -8.8493514092e-19 -6.3909349693e-19 -9.3675004103e-16 5.1100000000e-04 5.1099893000e-04 0.0000e+00 1.0000e+00
       50  1    1    2    0    0 +2.2085724563e-03 -1.0779143111e-02 +4.0528630801e+00 4.0528810925e+00 4.9935713700e-03 0.0000e+00 0.0000e+00
       11  1    1    2    0    0 +1.8002592375e-03 +1.3674291182e-02 +1.9069453220e-01 1.9119333907e-01 5.1099893000e-04 0.0000e+00 1.0000e+00
<vert_displacement>
257.81684736861496
</vert_displacement>
</event>
<event>
 4   1200 +8.5212000e+10 9.53232600e-03 7.81665300e-03            nan
       50 -1    0    0    0    0 -3.7125396939e-02 +9.4088565016e-03 +1.9921576467e+01 1.9921613907e+01 4.9935713700e-03 0.0000e+00 0.0000e+00
       11 -1    0    0    0    0 -3.3879589448e-18 +8.5862568950e-19 +1.8179868432e-15 5.1100000000e-04 5.1099893000e-04 0.0000e+00 1.0000e+00
       50  1    1    2    0    0 -2.9531348477e-02 +1.2552737125e-02 +1.9856866570e+01 1.9856893125e+01 4.9935713700e-03 0.0000e+00 0.0000e+00
       11  1    1    2    0    0 -7.5940484628e-03 -3.1438806230e-03 +6.4709896572e-02 6.5231782067e-02 5.1099893000e-04 0.0000e+00 1.0000e+00
<vert_displacement>
400.45228097723435
</vert_displacement>
</event>
<event>
 4   1200 +8.5212000e+10 5.08366800e-03 7.81665300e-03            nan
       50 -1    0    0    0    0 +7.1434477383e-03 +1.1792998254e-02 +4.5792176176e+00 4.5792410975e+00 4.9935713700e-03 0.0000e+00 0.0000e+00
       11 -1    0    0    0    0 -7.4688537953e-19 -1.2330205665e-18 -4.7878150910e-16 5.1100000000e-04 5.1099893000e-04 0.0000e+00 1.0000e+00
       50  1    1    2    0    0 +6.2201705551e-03 +1.2031626777e-02 +4.5783297872e+00 4.5783525450e+00 4.9935713700e-03 0.0000e+00 0.0000e+00
       11  1    1    2    0    0 +9.2327718317e-04 -2.3862852274e-04 +8.8783045491e-04 1.3995524827e-03 5.1099893000e-04 0.0000e+00 1.0000e+00
<vert_displacement>
463.76319341872158
</vert_displacement>
</event>
<event>
 4   1200 +8.5212000e+10 1.22274500e-02 7.81665300e-03            nan
       50 -1    0    0    0    0 -3.1695762835e-02 -2.0227424221e-02 +1.6476437914e+01 1.6476481574e+01 4.9935713700e-03 0.0000e+00 0.0000e+00
       11 -1    0    0    0    0 -1.3348331962e-19 -8.5185636531e-20 +6.9388758359e-17 5.1100000000e-04 5.1099893000e-04 0.0000e+00 -1.0000e+00
       50  1    1    2    0    0 -3.3552265561e-02 -9.1132995846e-03 +1.6353633939e+01 1.6353671659e+01 4.9935713700e-03 0.0000e+00 0.0000e+00
       11  1    1    2    0    0 +1.8565027256e-03 -1.1114124636e-02 +1.2280397555e-01 1.2332091428e-01 5.1099893000e-04 0.0000e+00 -1.0000e+00
<vert_displacement>
190.31617427558527
</vert_displacement>
</event>
<event>
 4   1200 +8.5212000e+10 2.01443900e-02 7.81665300e-03            nan
       50 -1    0    0    0    0 -5.4721918089e-02 -2.7794819725e-02 +1.6738151801e+01 1.6738265075e+01 4.9935713700e-03 0.0000e+00 0.0000e+00
       11 -1    0    0    0    0 -2.0416610631e-18 -1.0370177649e-18 +6.2449625295e-16 5.1100000000e-04 5.1099893000e-04 0.0000e+00 1.0000e+00
       50  1    1    2    0    0 -3.6647783147e-02 -3.7045881115e-02 +1.6356817560e+01 1.6356901329e+01 4.9935713700e-03 0.0000e+00 0.0000e+00
       11  1    1    2    0    0 -1.8074134942e-02 +9.2510613899e-03 +3.8133424121e-01 3.8187474534e-01 5.1099893000e-04 0.0000e+00 1.0000e+00
<vert_displacement>
345.33944433050385
</vert_displacement>
</event>
<event>
 4   1200 +8.5212000e+10 8.76446300e-03 7.81665300e-03            nan
       50 -1    0    0    0    0 -2.7868740333e-02 -2.9109272717e-03 +2.6325891037e+01 2.6325906423e+01 4.9935713700e-03 0.0000e+00 0.0000e+00
       11 -1    0    0    0    0 +9.1084807735e-19 +9.5139302210e-20 -8.6042235671e-16 5.1100000000e-04 5.1099893000e-04 0.0000e+00 1.0000e+00
       50  1    1    2    0    0 -3.5005354597e-02 -2.4842032618e-03 +2.6275020885e+01 2.6275044795e+01 4.9935713700e-03 0.0000e+00 0.0000e+00
       11  1    1    2    0    0 +7.1366142641e-03 -4.2672400995e-04 +5.0870152514e-02 5.1372627860e-02 5.1099893000e-04 0.0000e+00 1.0000e+00
<vert_displacement>
338.71905320406933
</vert_displacement>
</event>
<event>
 4   1200 +8.5212000e+10 4.68013400e-02 7.81665300e-03            nan
       50 -1    0    0    0    0 +1.6887780802e-02 -3.6678748385e-03 +2.0683504560e+01 2.0683512382e+01 4.9935713700e-03 0.0000e+00 0.0000e+00
       11 -1    0    0    0    0 -7.4784653144e-19 +1.6242557313e-19 -9.1593367561e-16 5.1100000000e-04 5.1099893000e-04 0.0000e+00 1.0000e+00
       50  1    1    2    0    0 +2.3490491348e-02 -4.8982941953e-02 +1.8286516852e+01 1.8286598225e+01 4.9935713700e-03 0.0000e+00 0.0000e+00
       11  1    1    2    0    0 -6.6027105453e-03 +4.5315067115e-02 +2.3969877082e+00 2.3974251574e+00 5.1099893000e-04 0.0000e+00 1.0000e+00
<vert_displacement>
165.86987503420477
</vert_displacement>
</event>
<event>
 4   1200 +8.5212000e+10 1.00443800e-02 7.81665300e-03            nan
       50 -1    0    0    0    0 -6.4249801572e-03 +1.7337298345e-03 +2.6456446648e+00 2.6456577470e+00 4.9935713700e-03 0.0000e+00 0.0000e+00
       11 -1    0    0    0    0 -5.1395960828e-19 +1.3868791573e-19 +2.1163559455e-16 5.1100000000e-04 5.1099893000e-04 0.0000e+00 1.0000e+00
       50  1    1    2    0    0 +2.4301083960e-03 +7.8946828274e-04 +2.5690969785e+00 2.5691031022e+00 4.9935713700e-03 0.0000e+00 0.0000e+00
       11  1    1    2    0    0 -8.8550885532e-03 +9.4426155177e-04 +7.6547686228e-02 7.7065644809e-02 5.1099893000e-04 0.0000e+00 1.0000e+00
<vert_displacement>
485.82963857610724
</vert_displacement>
</event>
<event>
 4   1200 +8.5212000e+10 1.56155400e-02 7.81665300e-03            nan
       50 -1    0    0    0    0 -4.0459841424e-02 +1.9295749368e-02 +1.1672295182e+01 1.1672382322e+01 4.9935713700e-03 0.0000e+00 0.0000e+00
       11 -1    0    0    0    0 -3.8483533517e-19 +1.8353226097e-19 +1.1102148378e-16 5.1100000000e-04 5.1099893000e-04 0.0000e+00 1.0000e+00
       50  1    1    2    0    0 -4.9059672253e-02 +7.4734240020e-03 +1.1453985714e+01 1.1454094306e+01 4.9935713700e-03 0.0000e+00 0.0000e+00
       11  1    1    2    0    0 +8.5998308286e-03 +1.1822325366e-02 +2.1830946858e-01 2.1879901659e-01 5.1099893000e-04 0.0000e+00 1.0000e+00
<vert_displacement>
289.35984412167403
</vert_displacement>
</event>
<event>
 4   1200 +8.5212000e+10 1.76175200e-02 7.81665300e-03            nan
       50 -1    0    0    0    0 -1.5475562594e-02 +4.5210435652e-03 +9.5713997047e+00 9.5714145859e+00 4.9935713700e-03 0.0000e+00 0.0000e+00
       11 -1    0    0    0    0 +2.1316417874e-19 -6.2273958234e-20 -1.3183879714e-16 5.1100000000e-04 5.1099893000e-04 0.0000e+00 1.0000e+00
       50  1    1    2    0    0 -1.7642179895e-02 -1.2303687966e-02 +9.2834042813e+00 9.2834305412e+00 4.9935713700e-03 0.0000e+00 0.0000e+00
       11  1    1    2    0    0 +2.1666173009e-03 +1.6824731531e-02 +2.8799542345e-01 2.8849504479e-01 5.1099893000e-04 0.0000e+00 1.0000e+00
<vert_displacement>
82.879705586336200
</vert_displacement>
</event>
<event>
 4   1200 +8.5212000e+10 1.59276100e-02 7.81665300e-03            nan
       50 -1    0    0    0    0 +7.1175479975e-02 -5.0528269277e-02 +3.0435795571e+01 3.0435921147e+01 4.9935713700e-03 0.0000e+00 0.0000e+00
       11 -1    0    0    0    0 -7.1398137643e-19 +5.0686336446e-19 -3.0531007620e-16 5.1100000000e-04 5.1099893000e-04 0.0000e+00 1.0000e+00
       50  1    1    2    0    0 +8.4635245480e-02 -5.5908185089e-02 +3.0210249547e+01 3.0210420247e+01 4.9935713700e-03 0.0000e+00 0.0000e+00
       11  1    1    2    0    0 -1.3459765505e-02 +5.3799158117e-03 +2.2554602404e-01 2.2601189982e-01 5.1099893000e-04 0.0000e+00 1.0000e+00
<vert_displacement>
417.94153070260705
</vert_displacement>
</event>
<event>
 4   1200 +8.5212000e+10 4.32597800e-02 7.81665300e-03            nan
       50 -1    0    0    0    0 -1.0334670561e-01 -2.8955848381e-02 +3.1217767681e+01 3.1217952574e+01 4.9935713700e-03 0.0000e+00 0.0000e+00
       11 -1    0    0    0    0 -7.4885903411e-18 -2.0981654445e-18 +2.2620660441e-15 5.1100000000e-04 5.1099893000e-04 0.0000e+00 1.0000e+00
       50  1    1    2    0    0 -1.3964043690e-01 -2.2085101572e-02 +2.9292017554e+01 2.9292359149e+01 4.9935713700e-03 0.0000e+00 0.0000e+00
       11  1    1    2    0    0 +3.6293731293e-02 -6.8707468090e-03 +1.9257501276e+00 1.9261044253e+00 5.1099893000e-04 0.0000e+00 1.0000e+00
<vert_displacement>
459.11470184432397
</vert_displacement>
</event>
<event>
 4   1200 +8.5212000e+10 8.21208100e-03 7.81665300e-03            nan
       50 -1    0    0    0    0 -7.0097654742e-04 +2.4017119425e-03 +1.9090410895e+00 1.9090492600e+00 4.9935713700e-03 0.0000e+00 0.0000e+00
       11 -1    0    0    0    0 -3.4396310014e-20 +1.1784991787e-19 +9.3674987256e-17 5.1100000000e-04 5.1099893000e-04 0.0000e+00 1.0000e+00
       50  1    1    2    0    0 -6.3939200701e-03 +5.4969316715e-03 +1.8664753864e+00 1.8665011123e+00 4.9935713700e-03 0.0000e+00 0.0000e+00
       11  1    1    2    0    0 +5.6929435227e-03 -3.0952197290e-03 +4.2565703158e-02 4.3059147650e-02 5.1099893000e-04 0.0000e+00 1.0000e+00
<vert_displacement>
438.07508419742413
</vert_displacement>
</event>
<event>
 4   1200 +8.5212000e+10 3.42728500e-02 7.81665300e-03            nan
       50 -1    0    0    0    0 -1.7719576298e-02 +6.4157587131e-03 +9.3838386988e+00 9.3838589507e+00 4.9935713700e-03 0.0000e+00 0.0000e+00
       11 -1    0    0    0    0 +6.4203432965e-19 -2.3246251915e-19 -3.4000511565e-16 5.1100000000e-04 5.1099893000e-04 0.0000e+00 1.0000e+00
       50  1    1    2    0    0 -3.6320960370e-02 +3.2086931932e-02 +8.0760687640e+00 8.0762157227e+00 4.9935713700e-03 0.0000e+00 0.0000e+00
       11  1    1    2    0    0 +1.8601384072e-02 -2.5671173219e-02 +1.3077699348e+00 1.3081542280e+00 5.1099893000e-04 0.0000e+00 1.0000e+00
<vert_displacement>
9.8645420367583903
</vert_displacement>
</event>
<event>
 4   1200 +8.5212000e+10 8.60603500e-03 7.81665300e-03            nan
       50 -1    0    0    0    0 +2.2778805433e-02 -2.1311575936e-02 +1.4857127707e+01 1.4857161293e+01 4.9935713700e-03 0.0000e+00 0.0000e+00
       11 -1    0    0    0    0 +1.1702484207e-19 -1.0948703239e-19 +7.6327664706e-17 5.1100000000e-04 5.1099893000e-04 0.0000e+00 1.0000e+00
       50  1    1    2    0    0 +1.5695727524e-02 -2.1245548015e-02 +1.4808909555e+01 1.4808933954e+01 4.9935713700e-03 0.0000e+00 0.0000e+00
       11  1    1    2    0    0 +7.0830779086e-03 -6.6027920918e-05 +4.8218151977e-02 4.8738338629e-02 5.1099893000e-04 0.0000e+00 1.0000e+00
<vert_displacement>
311.95429180922190
</vert_displacement>
</event>
<event>
 4   1200 +8.5212000e+10 1.72778800e-02 7.81665300e-03            nan
       50 -1    0    0    0    0 +3.8763913046e-02 +1.2258236489e-02 +1.5902957209e+01 1.5903009961e+01 4.9935713700e-03 0.0000e+00 0.0000e+00
       11 -1    0    0    0    0 +2.4017449858e-18 +7.5949912455e-19 +9.8531971448e-16 5.1100000000e-04 5.1099893000e-04 0.0000e+00 1.0000e+00
       50  1    1    2    0    0 +2.8874024047e-02 +2.5776755602e-02 +1.5630589092e+01 1.5630637813e+01 4.9935713700e-03 0.0000e+00 0.0000e+00
       11  1    1    2    0    0 +9.8898889993e-03 -1.3518519113e-02 +2.7236811645e-01 2.7288314760e-01 5.1099893000e-04 0.0000e+00 1.0000e+00
<vert_displacement>
354.32138596351979
</vert_displacement>
</event>
<event>
 4   1200 +8.5212000e+10 1.08778500e-02 7.81665300e-03            nan
       50 -1    0    0    0    0 +1.0442461322e-02 -6.3782353209e-03 +9.9007720678e+00 9.9007808885e+00 4.9935713700e-03 0.0000e+00 0.0000e+00
       11 -1    0    0    0    0 +2.2687436259e-19 -1.3857442496e-19 +2.1510554674e-16 5.1100000000e-04 5.1099893000e-04 0.0000e+00 1.0000e+00
       50  1    1    2    0    0 +1.5909091490e-02 -1.4220358415e-02 +9.8085133738e+00 9.8085378553e+00 4.9935713700e-03 0.0000e+00 0.0000e+00
       11  1    1    2    0    0 -5.4666301679e-03 +7.8421230943e-03 +9.2258693967e-02 9.2754033187e-02 5.1099893000e-04 0.0000e+00 1.0000e+00
<vert_displacement>
211.97975969899628
</vert_displacement>
</event>
<event>
 4   1200 +8.5212000e+10 3.25323100e-02 7.81665300e-03            nan
       50 -1    0    0    0    0 +1.8819969697e-02 +4.2396078550e-03 +1.5142702961e+01 1.5142716073e+01 4.9935713700e-03 0.0000e+00 0.0000e+00
       11 -1    0    0    0    0 -6.9853863319e-19 -1.5736103320e-19 -5.6204995010e-16 5.1100000000e-04 5.1099893000e-04 0.0000e+00 1.0000e+00
       50  1    1    2    0    0 +7.2153479116e-03 +3.4403310974e-02 +1.4052954257e+01 1.4052999109e+01 4.9935713700e-03 0.0000e+00 0.0000e+00
       11  1    1    2    0    0 +1.1604621785e-02 -3.0163703119e-02 +1.0897487032e+00 1.0902279640e+00 5.1099893000e-04 0.0000e+00 1.0000e+00
<vert_displacement>
336.52922999005079
</vert_displacement>
</event>
<event>
 4   1200 +8.5212000e+10 1.79628700e-02 7.81665300e-03            nan
       50 -1    0    0    0    0 -4.3861312113e-02 -3.8280712915e-02 +1.6419797013e+01 1.6419900978e+01 4.9935713700e-03 0.0000e+00 0.0000e+00
       11 -1    0    0    0    0 -3.7441455436e-18 -3.2677672820e-18 +1.4016477587e-15 5.1100000000e-04 5.1099893000e-04 0.0000e+00 -1.0000e+00
       50  1    1    2    0    0 -3.8226774871e-02 -5.4150502796e-02 +1.6123075328e+01 1.6123212351e+01 4.9935713700e-03 0.0000e+00 0.0000e+00
       11  1    1    2    0    0 -5.6345372415e-03 +1.5869789881e-02 +2.9672168534e-01 2.9719962636e-01 5.1099893000e-04 0.0000e+00 -1.0000e+00
<vert_displacement>
431.34084256604496
</vert_displacement>
</event>
<event>
 4   1200 +8.5212000e+10 1.49390200e-02 7.81665300e-03            nan
       50 -1    0    0    0    0 -9.6922739398e-02 -1.3123350630e-02 +7.1505083156e+01 7.1505150222e+01 4.9935713700e-03 0.0000e+00 0.0000e+00
       11 -1    0    0    0    0 +1.1324136409e-17 +1.5332894386e-18 -8.3544204449e-15 5.1100000000e-04 5.1099893000e-04 0.0000e+00 1.0000e+00
       50  1    1    2    0    0 -8.5628918106e-02 -2.1838279944e-02 +7.1310594889e+01 7.1310649819e+01 4.9935713700e-03 0.0000e+00 0.0000e+00
       11  1    1    2    0    0 -1.1293821292e-02 +8.7149293143e-03 +1.9448826611e-01 1.9501140266e-01 5.1099893000e-04 0.0000e+00 1.0000e+00
<vert_displacement>
400.16658786225713
</vert_displacement>
</event>
<event>
 4   1200 +8.5212000e+10 7.36359100e-03 7.81665300e-03            nan
       50 -1    0    0    0    0 +2.0802370689e-02 -1.6191078957e-02 +1.5652556413e+01 1.5652579407e+01 4.9935713700e-03 0.0000e+00 0.0000e+00
       11 -1    0    0    0    0 -6.0864088184e-19 +4.7372257333e-19 -4.5796634820e-16 5.1100000000e-04 5.1099893000e-04 0.0000e+00 1.0000e+00
       50  1    1    2    0    0 +2.6033922472e-02 -1.4929772348e-02 +1.5623840775e+01 1.5623870397e+01 4.9935713700e-03 0.0000e+00 0.0000e+00
       11  1    1    2    0    0 -5.2315517825e-03 -1.2613066086e-03 +2.8715638008e-02 2.9220010516e-02 5.1099893000e-04 0.0000e+00 1.0000e+00
<vert_displacement>
131.64102327985657
</vert_displacement>
</event>
<event>
 4   1200 +8.5212000e+10 2.19790500e-02 7.81665300e-03            nan
       50 -1    0    0    0    0 +2.3511120926e-02 -7.0539008440e-02 +3.4421771670e+01 3.4421852337e+01 4.9935713700e-03 0.0000e+00 0.0000e+00
       11 -1    0    0    0    0 -2.1327593938e-18 +6.3987903150e-18 -3.1224949720e-15 5.1100000000e-04 5.1099893000e-04 0.0000e+00 1.0000e+00
       50  1    1    2    0    0 +2.8427500037e-02 -9.0364331784e-02 +3.3967439390e+01 3.3967571851e+01 4.9935713700e-03 0.0000e+00 0.0000e+00
       11  1    1    2    0    0 -4.9163791108e-03 +1.9825323343e-02 +4.5433227957e-01 4.5479148586e-01 5.1099893000e-04 0.0000e+00 1.0000e+00
<vert_displacement>
102.15999177917635
</vert_displacement>
</event>
<event>
 4   1200 +8.5212000e+10 3.94018600e-02 7.81665300e-03            nan
       50 -1    0    0    0    0 +6.2231042359e-03 -5.6240814872e-02 +3.0620750752e+01 3.0620803440e+01 4.9935713700e-03 0.0000e+00 0.0000e+00
       11 -1    0    0    0    0 +2.0870961745e-19 -1.8861967455e-18 +1.0269545444e-15 5.1100000000e-04 5.1099893000e-04 0.0000e+00 1.0000e+00
       50  1    1    2    0    0 +3.3055037504e-02 -8.1459147728e-02 +2.9044818402e+01 2.9044951871e+01 4.9935713700e-03 0.0000e+00 0.0000e+00
       11  1    1    2    0    0 -2.6831933268e-02 +2.5218332856e-02 +1.5759323492e+00 1.5763625685e+00 5.1099893000e-04 0.0000e+00 1.0000e+00
<vert_displacement>
209.83542565633067
</vert_displacement>
</event>
<event>
 4   1200 +8.5212000e+10 1.15817700e-02 7.81665300e-03            nan
       50 -1    0    0    0    0 +2.7273540943e-02 +2.1674377843e-02 +1.1042697235e+01 1.1042753315e+01 4.9935713700e-03 0.0000e+00 0.0000e+00
       11 -1    0    0    0    0 +1.6623642157e-18 +1.3210866238e-18 +6.7306935931e-16 5.1100000000e-04 5.1099893000e-04 0.0000e+00 1.0000e+00
       50  1    1    2    0    0 +3.4609316226e-02 +1.4292719459e-02 +1.0934780237e+01 1.0934845489e+01 4.9935713700e-03 0.0000e+00 0.0000e+00
       11  1    1    2    0    0 -7.3357752828e-03 +7.3816583840e-03 +1.0791699785e-01 1.0841882689e-01 5.1099893000e-04 0.0000e+00 1.0000e+00
<vert_displacement>
223.50917221253403
</vert_displacement>
</event>
<event>
 4   1200 +8.5212000e+10 1.32078800e-02 7.81665300e-03            nan
       50 -1    0    0    0    0 -1.3734151379e-02 -5.7979900886e-03 +4.0057117025e+01 4.0057120110e+01 4.9935713700e-03 0.0000e+00 0.0000e+00
       11 -1    0    0    0    0 +2.8406431813e-18 +1.1992019424e-18 -8.2850387475e-15 5.1100000000e-04 5.1099893000e-04 0.0000e+00 1.0000e+00
       50  1    1    2    0    0 -1.6178384026e-02 -1.7747094035e-02 +3.9910280111e+01 3.9910287648e+01 4.9935713700e-03 0.0000e+00 0.0000e+00
       11  1    1    2    0    0 +2.4442326476e-03 +1.1949103946e-02 +1.4683691394e-01 1.4734346193e-01 5.1099893000e-04 0.0000e+00 1.0000e+00
<vert_displacement>
222.36599077950044
</vert_displacement>
</event>
<event>
 4   1200 +8.5212000e+10 1.45851800e-02 7.81665300e-03            nan
       50 -1    0    0    0    0 -2.1021805943e-02 -4.5322733516e-05 +1.1089385052e+01 1.1089406102e+01 4.9935713700e-03 0.0000e+00 0.0000e+00
       11 -1    0    0    0    0 -7.4976796683e-19 -1.6164897465e-21 +3.9551624186e-16 5.1100000000e-04 5.1099893000e-04 0.0000e+00 1.0000e+00
       50  1    1    2    0    0 -3.2248294291e-02 -7.3709527851e-03 +1.0902448177e+01 1.0902499506e+01 4.9935713700e-03 0.0000e+00 0.0000e+00
       11  1    1    2    0    0 +1.1226488348e-02 +7.3256300515e-03 +1.8693687481e-01 1.8741759571e-01 5.1099893000e-04 0.0000e+00 1.0000e+00
<vert_displacement>
37.121906521401577
</vert_displacement>
</event>
<event>
 4   1200 +8.5212000e+10 1.15996800e-02 7.81665300e-03            nan
       50 -1    0    0    0    0 +1.9930669924e-02 +6.7357371113e-03 +7.3341911674e+00 7.3342230411e+00 4.9935713700e-03 0.0000e+00 0.0000e+00
       11 -1    0    0    0    0 +8.4853672833e-19 +2.8677010623e-19 +3.1224894104e-16 5.1100000000e-04 5.1099893000e-04 0.0000e+00 1.0000e+00
       50  1    1    2    0    0 +1.4320810483e-02 +1.5656742916e-02 +7.2253112494e+00 7.2253441306e+00 4.9935713700e-03 0.0000e+00 0.0000e+00
       11  1    1    2    0    0 +5.6098594413e-03 -8.9210058050e-03 +1.0887991797e-01 1.0938991053e-01 5.1099893000e-04 0.0000e+00 1.0000e+00
<vert_displacement>
269.67508279514550
</vert_displacement>
</event>
<event>
 4   1200 +8.5212000e+10 6.14719200e-03 7.81665300e-03            nan
       50 -1    0    0    0    0 -6.0774634866e-03 -5.0609470614e-03 +8.2837451568e+00 8.2837504373e+00 4.9935713700e-03 0.0000e+00 0.0000e+00
       11 -1    0    0    0    0 -1.0181591616e-18 -8.4786187993e-19 +1.3877781483e-15 5.1100000000e-04 5.1099893000e-04 0.0000e+00 1.0000e+00
       50  1    1    2    0    0 -2.6441552274e-03 -3.9911944803e-03 +8.2711527878e+00 8.2711556808e+00 4.9935713700e-03 0.0000e+00 0.0000e+00
       11  1    1    2    0    0 -3.4333082592e-03 -1.0697525811e-03 +1.2592369012e-02 1.3105756500e-02 5.1099893000e-04 0.0000e+00 1.0000e+00
<vert_displacement>
98.295465207251880
</vert_displacement>
</event>
<event>
 4   1200 +8.5212000e+10 2.58269400e-02 7.81665300e-03            nan
       50 -1    0    0    0    0 -1.1072287360e-03 +7.0948831856e-03 +3.0418828688e+00 3.0418954431e+00 4.9935713700e-03 0.0000e+00 0.0000e+00
       11 -1    0    0    0    0 -1.6795987544e-19 +1.0762506945e-18 +4.6143515892e-16 5.1100000000e-04 5.1099893000e-04 0.0000e+00 1.0000e+00
       50  1    1    2    0    0 +8.5003877958e-03 +2.8592204450e-02 +2.1497753722e+00 2.1499881064e+00 4.9935713700e-03 0.0000e+00 0.0000e+00
       11  1    1    2    0    0 -9.6076165318e-03 -2.1497321264e-02 +8.9210749658e-01 8.9241833671e-01 5.1099893000e-04 0.0000e+00 1.0000e+00
<vert_displacement>
112.30624466313790
</vert_displacement>
</event>
<event>
 4   1200 +8.5212000e+10 9.06001500e-03 7.81665300e-03            nan
       50 -1    0    0    0    0 -2.3109910522e-02 +7.1276635497e-03 +8.7652842605e+00 8.7653190458e+00 4.9935713700e-03 0.0000e+00 0.0000e+00
       11 -1    0    0    0    0 -2.4514647425e-18 +7.5609188843e-19 +9.2980824404e-16 5.1100000000e-04 5.1099893000e-04 0.0000e+00 1.0000e+00
       50  1    1    2    0    0 -1.6796053402e-02 +2.7075650032e-03 +8.7090206987e+00 8.7090387474e+00 4.9935713700e-03 0.0000e+00 0.0000e+00
       11  1    1    2    0    0 -6.3138571198e-03 +4.4200985465e-03 +5.6263561831e-02 5.6791298389e-02 5.1099893000e-04 0.0000e+00 1.0000e+00
<vert_displacement>
201.12629792337205
</vert_displacement>
</event>
<event>
 4   1200 +8.5212000e+10 2.60608400e-02 7.81665300e-03            nan
       50 -1    0    0    0    0 -1.8200903692e-02 +8.9391992329e-03 +7.1890098165e+00 7.1890401487e+00 4.9935713700e-03 0.0000e+00 0.0000e+00
       11 -1    0    0    0    0 +7.2027153399e-19 -3.5375445380e-19 -2.8449351834e-16 5.1100000000e-04 5.1099893000e-04 0.0000e+00 1.0000e+00
       50  1    1    2    0    0 -1.7087159483e-03 +2.8992305716e-02 +6.4783378284e+00 6.4784048522e+00 4.9935713700e-03 0.0000e+00 0.0000e+00
       11  1    1    2    0    0 -1.6492187744e-02 -2.0053106483e-02 +7.1067198802e-01 7.1114629649e-01 5.1099893000e-04 0.0000e+00 1.0000e+00
<vert_displacement>
174.23669269578835
</vert_displacement>
</event>
<event>
 4   1200 +8.5212000e+10 2.85713300e-02 7.81665300e-03            nan
       50 -1    0    0    0    0 +4.2302379646e-02 +2.3182540196e-02 +2.1992579247e+01 2.1992632717e+01 4.9935713700e-03 0.0000e+00 0.0000e+00
       11 -1    0    0    0    0 -8.5419654291e-19 -4.6811658959e-19 -4.4408814161e-16 5.1100000000e-04 5.1099893000e-04 0.0000e+00 1.0000e+00
       50  1    1    2    0    0 +3.1355138417e-02 +4.8849473059e-02 +2.1188795554e+01 2.1188875652e+01 4.9935713700e-03 0.0000e+00 0.0000e+00
       11  1    1    2    0    0 +1.0947241230e-02 -2.5666932863e-02 +8.0378369335e-01 8.0426806498e-01 5.1099893000e-04 0.0000e+00 1.0000e+00
<vert_displacement>
436.46205152587390
</vert_displacement>
</event>
<event>
 4   1200 +8.5212000e+10 9.67182800e-03 7.81665300e-03            nan
       50 -1    0    0    0    0 -1.2139599603e-02 -7.9572925864e-03 +1.1104785405e+01 1.1104796014e+01 4.9935713700e-03 0.0000e+00 0.0000e+00
       11 -1    0    0    0    0 -1.4488300190e-18 -9.4968242329e-19 +1.3253276035e-15 5.1100000000e-04 5.1099893000e-04 0.0000e+00 1.0000e+00
       50  1    1    2    0    0 -1.8853052943e-02 -3.1611410440e-03 +1.1037234982e+01 1.1037252666e+01 4.9935713700e-03 0.0000e+00 0.0000e+00
       11  1    1    2    0    0 +6.7134533396e-03 -4.7961515424e-03 +6.7550423311e-02 6.8054348390e-02 5.1099893000e-04 0.0000e+00 1.0000e+00
<vert_displacement>
116.56862769557982
</vert_displacement>
</event>
<event>
 4   1200 +8.5212000e+10 6.04220800e-03 7.81665300e-03            nan
       50 -1    0    0    0    0 +5.0568917856e-02 +4.1060307118e-02 +3.0120064460e+01 3.0120135311e+01 4.9935713700e-03 0.0000e+00 0.0000e+00
       11 -1    0    0    0    0 +2.7726429836e-18 +2.2512954056e-18 +1.6514528871e-15 5.1100000000e-04 5.1099893000e-04 0.0000e+00 -1.0000e+00
       50  1    1    2    0    0 +5.3548012966e-02 +3.9437435611e-02 +3.0108733783e+01 3.0108807642e+01 4.9935713700e-03 0.0000e+00 0.0000e+00
       11  1    1    2    0    0 -2.9790951106e-03 +1.6228715072e-03 +1.1330677148e-02 1.1838669019e-02 5.1099893000e-04 0.0000e+00 -1.0000e+00
<vert_displacement>
16.252291211368608
</vert_displacement>
</event>
<event>
 4   1200 +8.5212000e+10 1.65681200e-02 7.81665300e-03            nan
       50 -1    0    0    0    0 -1.3582314973e-03 -1.4295102875e-02 +1.1128814064e+01 1.1128824449e+01 4.9935713700e-03 0.0000e+00 0.0000e+00
       11 -1    0    0    0    0 -3.5568380153e-20 -3.7434977349e-19 +2.9143330137e-16 5.1100000000e-04 5.1099893000e-04 0.0000e+00 1.0000e+00
       50  1    1    2    0    0 +8.2359840887e-03 -2.6548052412e-02 +1.0878973048e+01 1.0879009704e+01 4.9935713700e-03 0.0000e+00 0.0000e+00
       11  1    1    2    0    0 -9.5942155860e-03 +1.2252949537e-02 +2.4984101611e-01 2.5032574418e-01 5.1099893000e-04 0.0000e+00 1.0000e+00
<vert_displacement>
465.50160653311423
</vert_displacement>
</event>
<event>
 4   1200 +8.5212000e+10 1.30658900e-02 7.81665300e-03            nan
       50 -1    0    0    0    0 -1.3189402638e-02 +1.2826348037e-02 +9.2975069160e+00 9.2975264594e+00 4.9935713700e-03 0.0000e+00 0.0000e+00
       11 -1    0    0    0    0 -9.9418999185e-19 +9.6682368419e-19 +7.0082691223e-16 5.1100000000e-04 5.1099893000e-04 0.0000e+00 -1.0000e+00
       50  1    1    2    0    0 -2.8705007139e-03 +6.0308321094e-03 +9.1526145413e+00 9.1526183406e+00 4.9935713700e-03 0.0000e+00 0.0000e+00
       11  1    1    2    0    0 -1.0318901924e-02 +6.7955159281e-03 +1.4489237466e-01 1.4541911885e-01 5.1099893000e-04 0.0000e+00 -1.0000e+00
<vert_displacement>
285.52492727999044
</vert_displacement>
</event>
<event>
 4   1200 +8.5212000e+10 2.66958800e-02 7.81665300e-03            nan
       50 -1    0    0    0    0 -9.8363908655e-03 -6.3140411749e-03 +4.8130357581e+00 4.8130525414e+00 4.9935713700e-03 0.0000e+00 0.0000e+00
       11 -1    0    0    0    0 +1.8151629805e-18 +1.1651645360e-18 -8.8817580061e-16 5.1100000000e-04 5.1099893000e-04 0.0000e+00 1.0000e+00
       50  1    1    2    0    0 +1.3268188022e-02 +9.8370694188e-03 +4.0030983684e+00 4.0031355579e+00 4.9935713700e-03 0.0000e+00 0.0000e+00
       11  1    1    2    0    0 -2.3104578887e-02 -1.6151110594e-02 +8.0993738973e-01 8.1042798344e-01 5.1099893000e-04 0.0000e+00 1.0000e+00
<vert_displacement>
289.78349784017178
</vert_displacement>
</event>
<event>
 4   1200 +8.5212000e+10 1.50670100e-02 7.81665300e-03            nan
       50 -1    0    0    0    0 -2.9303475714e-03 +2.2077663258e-04 +2.7919777682e+00 2.7919837803e+00 4.9935713700e-03 0.0000e+00 0.0000e+00
       11 -1    0    0    0    0 -3.6413899616e-20 +2.7434759667e-21 +3.4694450302e-17 5.1100000000e-04 5.1099893000e-04 0.0000e+00 1.0000e+00
       50  1    1    2    0    0 -1.5218233693e-02 +6.9497059255e-03 +2.5775972772e+00 2.5776564070e+00 4.9935713700e-03 0.0000e+00 0.0000e+00
       11  1    1    2    0    0 +1.2287886122e-02 -6.7289292929e-03 +2.1438049101e-01 2.1483837339e-01 5.1099893000e-04 0.0000e+00 1.0000e+00
<vert_displacement>
134.75029183938000
</vert_displacement>
</event>
<event>
 4   1200 +8.5212000e+10 1.46527300e-02 7.81665300e-03            nan
       50 -1    0    0    0    0 -6.0700887626e-03 -4.7697732114e-03 +2.1224183303e+00 2.1224382444e+00 4.9935713700e-03 0.0000e+00 0.0000e+00
       11 -1    0    0    0    0 -6.3504047532e-19 -4.9900407817e-19 +2.2204313611e-16 5.1100000000e-04 5.1099893000e-04 0.0000e+00 1.0000e+00
       50  1    1    2    0    0 +3.6462091290e-03 +6.0107968210e-03 +1.9165330572e+00 1.9165524568e+00 4.9935713700e-03 0.0000e+00 0.0000e+00
       11  1    1    2    0    0 -9.7162978916e-03 -1.0780570032e-02 +2.0588527313e-01 2.0639678763e-01 5.1099893000e-04 0.0000e+00 1.0000e+00
<vert_displacement>
130.07601713398719
</vert_displacement>
</event>
<event>
 4   1200 +8.5212000e+10 9.83000700e-03 7.81665300e-03            nan
       50 -1    0    0    0    0 +6.0491038570e-02 -2.2118120061e-02 +2.3508491382e+01 2.3508580144e+01 4.9935713700e-03 0.0000e+00 0.0000e+00
       11 -1    0    0    0    0 -5.1064717232e-18 +1.8671452389e-18 -1.9845162083e-15 5.1100000000e-04 5.1099893000e-04 0.0000e+00 1.0000e+00
       50  1    1    2    0    0 +5.3412393267e-02 -1.7141115852e-02 +2.3438151698e+01 2.3438219358e+01 4.9935713700e-03 0.0000e+00 0.0000e+00
       11  1    1    2    0    0 +7.0786453025e-03 -4.9770042087e-03 +7.0339684294e-02 7.0871786324e-02 5.1099893000e-04 0.0000e+00 1.0000e+00
<vert_displacement>
76.053658956615209
</vert_displacement>
</event>
<event>
 4   1200 +8.5212000e+10 2.11924200e-02 7.81665300e-03            nan
       50 -1    0    0    0    0 -2.2848210482e-02 +2.2827527038e-02 +1.0980427050e+01 1.0980475685e+01 4.9935713700e-03 0.0000e+00 0.0000e+00
       11 -1    0    0    0    0 +5.7753900419e-20 -5.7701618445e-20 -2.7755455550e-17 5.1100000000e-04 5.1099893000e-04 0.0000e+00 1.0000e+00
       50  1    1    2    0    0 -1.0032990399e-02 +5.1307883862e-03 +1.0548375109e+01 1.0548382310e+01 4.9935713700e-03 0.0000e+00 0.0000e+00
       11  1    1    2    0    0 -1.2815220083e-02 +1.7696738652e-02 +4.3205194167e-01 4.3260437566e-01 5.1099893000e-04 0.0000e+00 1.0000e+00
<vert_displacement>
15.958406146693822
</vert_displacement>
</event>
<event>
 4   1200 +8.5212000e+10 6.85054900e-02 7.81665300e-03            nan
       50 -1    0    0    0    0 -3.5192656989e-02 +4.6131526985e-02 +2.5281235517e+01 2.5281302594e+01 4.9935713700e-03 0.0000e+00 0.0000e+00
       11 -1    0    0    0    0 -1.3329748391e-18 +1.7473010003e-18 +9.5756483678e-16 5.1100000000e-04 5.1099893000e-04 0.0000e+00 1.0000e+00
       50  1    1    2    0    0 -8.6995069404e-02 +2.7773528311e-03 +1.9294531007e+01 1.9294727974e+01 4.9935713700e-03 0.0000e+00 0.0000e+00
       11  1    1    2    0    0 +5.1802412415e-02 +4.3354174154e-02 +5.9867045102e+00 5.9870856206e+00 5.1099893000e-04 0.0000e+00 1.0000e+00
<vert_displacement>
19.797144443635876
</vert_displacement>
</event>
<event>
 4   1200 +8.5212000e+10 1.28298500e-02 7.81665300e-03            nan
       50 -1    0    0    0    0 +1.6730784207e-02 -2.6055373011e-02 +1.7682617844e+01 1.7682645661e+01 4.9935713700e-03 0.0000e+00 0.0000e+00
       11 -1    0    0    0    0 -4.5957601810e-19 +7.1571209276e-19 -4.8572182855e-16 5.1100000000e-04 5.1099893000e-04 0.0000e+00 1.0000e+00
       50  1    1    2    0    0 +8.1866527574e-03 -1.7553207019e-02 +1.7544897138e+01 1.7544908540e+01 4.9935713700e-03 0.0000e+00 0.0000e+00
       11  1    1    2    0    0 +8.5441314499e-03 -8.5021659926e-03 +1.3772070577e-01 1.3824812088e-01 5.1099893000e-04 0.0000e+00 1.0000e+00
<vert_displacement>
463.18184819856867
</vert_displacement>
</event>
<event>
 4   1200 +8.5212000e+10 5.01480600e-03 7.81665300e-03            nan
       50 -1    0    0    0    0 -7.5624848373e-03 -2.0254067143e-02 +1.5638694623e+01 1.5638710364e+01 4.9935713700e-03 0.0000e+00 0.0000e+00
       11 -1    0    0    0    0 -1.0200640297e-18 -2.7319651929e-18 +2.1094217310e-15 5.1100000000e-04 5.1099893000e-04 0.0000e+00 1.0000e+00
       50  1    1    2    0    0 -7.9549574989e-03 -2.0012120921e-02 +1.5638486791e+01 1.5638502416e+01 4.9935713700e-03 0.0000e+00 0.0000e+00
       11  1    1    2    0    0 +3.9247266156e-04 -2.4194622114e-04 +2.0783178855e-04 7.1894834501e-04 5.1099893000e-04 0.0000e+00 1.0000e+00
<vert_displacement>
402.97630194492046
</vert_displacement>
</event>
<event>
 4   1200 +8.5212000e+10 5.46436400e-02 7.81665300e-03            nan
       50 -1    0    0    0    0 +1.2702088666e-02 +8.5300366454e-03 +1.2775250281e+01 1.2775260420e+01 4.9935713700e-03 0.0000e+00 0.0000e+00
       11 -1    0    0    0    0 +2.0697453386e-20 +1.3899291723e-20 +2.0816666782e-17 5.1100000000e-04 5.1099893000e-04 0.0000e+00 1.0000e+00
       50  1    1    2    0    0 +2.6009034985e-03 -4.8560230759e-02 +8.3240886015e+00 8.3242321473e+00 4.9935713700e-03 0.0000e+00 0.0000e+00
       11  1    1    2    0    0 +1.0101185167e-02 +5.7090267405e-02 +4.4511616797e+00 4.4515392722e+00 5.1099893000e-04 0.0000e+00 1.0000e+00
<vert_displacement>
33.042350267549089
</vert_displacement>
</event>
<event>
 4   1200 +8.5212000e+10 1.18574200e-02 7.81665300e-03            nan
       50 -1    0    0    0    0 -1.0446576129e-02 -1.1566313184e-02 +1.0784477043e+01 1.0784489461e+01 4.9935713700e-03 0.0000e+00 0.0000e+00
       11 -1    0    0    0    0 -6.7214763808e-19 -7.4419312046e-19 +6.9388866577e-16 5.1100000000e-04 5.1099893000e-04 0.0000e+00 -1.0000e+00
       50  1    1    2    0    0 -1.5005560298e-02 -2.1131534022e-02 +1.0670067776e+01 1.0670100420e+01 4.9935713700e-03 0.0000e+00 0.0000e+00
       11  1    1    2    0    0 +4.5589841691e-03 +9.5652208381e-03 +1.1440926715e-01 1.1490004054e-01 5.1099893000e-04 0.0000e+00 -1.0000e+00
<vert_displacement>
426.51244834394686
</vert_displacement>
</event>
<event>
 4   1200 +8.5212000e+10 6.03060300e-03 7.81665300e-03            nan
       50 -1    0    0    0    0 -1.7267176437e-02 -6.1256049119e-02 +3.7328306623e+01 3.7328361211e+01 4.9935713700e-03 0.0000e+00 0.0000e+00
       11 -1    0    0    0    0 -7.9602065078e-19 -2.8239174055e-18 +1.7208431870e-15 5.1100000000e-04 5.1099893000e-04 0.0000e+00 1.0000e+00
       50  1    1    2    0    0 -1.7993688342e-02 -6.4538749557e-02 +3.7317111056e+01 3.7317171537e+01 4.9935713700e-03 0.0000e+00 0.0000e+00
       11  1    1    2    0    0 +7.2651190567e-04 +3.2827004380e-03 +1.1195566435e-02 1.1700673887e-02 5.1099893000e-04 0.0000e+00 1.0000e+00
<vert_displacement>
235.79360543165433
</vert_displacement>
</event>
<event>
 4   1200 +8.5212000e+10 5.20187700e-03 7.81665300e-03            nan
       50 -1    0    0    0    0 +1.0497833246e-01 -5.8299891733e-02 +3.1472088938e+01 3.1472318415e+01 4.9935713700e-03 0.0000e+00 0.0000e+00
       11 -1    0    0    0    0 +5.6937224530e-18 -3.1620182449e-18 +1.7069554757e-15 5.1100000000e-04 5.1099893000e-04 0.0000e+00 1.0000e+00
       50  1    1    2    0    0 +1.0470330281e-01 -5.9728483579e-02 +3.1470008973e+01 3.1470240227e+01 4.9935713700e-03 0.0000e+00 0.0000e+00
       11  1    1    2    0    0 +2.7502965541e-04 +1.4285918456e-03 +2.0799653073e-03 2.5891874321e-03 5.1099893000e-04 0.0000e+00 1.0000e+00
<vert_displacement>
349.36932708140006
</vert_displacement>
</event>
<event>
 4   1200 +8.5212000e+10 1.67495200e-02 7.81665300e-03            nan
       50 -1    0    0    0    0 +4.2923231798e-03 +1.3472951308e-03 +1.5302350346e+00 1.5302497954e+00 4.9935713700e-03 0.0000e+00 0.0000e+00
       11 -1    0    0    0    0 -1.3624503446e-19 -4.2765249453e-20 -4.8572047417e-17 5.1100000000e-04 5.1099893000e-04 0.0000e+00 1.0000e+00
       50  1    1    2    0    0 -4.4400699400e-03 -1.2863118206e-02 +1.2134474571e+00 1.2135340295e+00 4.9935713700e-03 0.0000e+00 0.0000e+00
       11  1    1    2    0    0 +8.7323931198e-03 +1.4210413337e-02 +3.1678757758e-01 3.1722676584e-01 5.1099893000e-04 0.0000e+00 1.0000e+00
<vert_displacement>
302.31508131078283
</vert_displacement>
</event>
<event>
 4   1200 +8.5212000e+10 1.94517300e-02 7.81665300e-03            nan
       50 -1    0    0    0    0 -7.9234835012e-03 +8.5014700756e-03 +3.7091726324e+00 3.7091941994e+00 4.9935713700e-03 0.0000e+00 0.0000e+00
       11 -1    0    0    0    0 -8.1524832694e-20 +8.7471744651e-20 +3.8163729153e-17 5.1100000000e-04 5.1099893000e-04 0.0000e+00 1.0000e+00
       50  1    1    2    0    0 +9.2271436344e-03 -1.7070703256e-03 +3.3228454556e+00 3.3228624576e+00 4.9935713700e-03 0.0000e+00 0.0000e+00
       11  1    1    2    0    0 -1.7150627136e-02 +1.0208540401e-02 +3.8632717673e-01 3.8684274183e-01 5.1099893000e-04 0.0000e+00 1.0000e+00
<vert_displacement>
466.22615411145603
</vert_displacement>
</event>
<event>
 4   1200 +8.5212000e+10 1.69163200e-02 7.81665300e-03            nan
       50 -1    0    0    0    0 -8.7404649512e-02 -2.5049163899e-02 +4.1079611255e+01 4.1079712180e+01 4.9935713700e-03 0.0000e+00 0.0000e+00
       11 -1    0    0    0    0 +4.1338567714e-18 +1.1847156459e-18 -1.9428855341e-15 5.1100000000e-04 5.1099893000e-04 0.0000e+00 1.0000e+00
       50  1    1    2    0    0 -1.0238024714e-01 -2.9394002721e-02 +4.0822358622e+01 4.0822497892e+01 4.9935713700e-03 0.0000e+00 0.0000e+00
       11  1    1    2    0    0 +1.4975597630e-02 +4.3448388216e-03 +2.5725263250e-01 2.5772528824e-01 5.1099893000e-04 0.0000e+00 1.0000e+00
<vert_displacement>
6.5594089698286320
</vert_displacement>
</event>
<event>
 4   1200 +8.5212000e+10 1.92906000e-02 7.81665300e-03            nan
       50 -1    0    0    0    0 -6.3408933994e-02 +5.1113552954e-02 +3.0255310148e+01 3.0255420182e+01 4.9935713700e-03 0.0000e+00 0.0000e+00
       11 -1    0    0    0    0 -2.9666593706e-18 +2.3914059310e-18 +1.4155292276e-15 5.1100000000e-04 5.1099893000e-04 0.0000e+00 1.0000e+00
       50  1    1    2    0    0 -6.3302381487e-02 +3.1910080679e-02 +2.9911712198e+01 2.9911796619e+01 4.9935713700e-03 0.0000e+00 0.0000e+00
       11  1    1    2    0    0 -1.0655250775e-04 +1.9203472275e-02 +3.4359795087e-01 3.4413456331e-01 5.1099893000e-04 0.0000e+00 1.0000e+00
<vert_displacement>
492.02426724730742
</vert_displacement>
</event>
<event>
 4   1200 +8.5212000e+10 3.82331300e-02 7.81665300e-03            nan
       50 -1    0    0    0    0 +6.6358075311e-04 +1.1201427684e-02 +6.9447358872e+00 6.9447467478e+00 4.9935713700e-03 0.0000e+00 0.0000e+00
       11 -1    0    0    0    0 -4.6411517367e-21 -7.8343932229e-20 -4.8572193924e-17 5.1100000000e-04 5.1099893000e-04 0.0000e+00 1.0000e+00
       50  1    1    2    0    0 -3.5993176502e-02 -2.2999240206e-03 +4.9822203719e+00 4.9823534167e+00 4.9935713700e-03 0.0000e+00 0.0000e+00
       11  1    1    2    0    0 +3.6656757255e-02 +1.3501351705e-02 +1.9625155152e+00 1.9629043311e+00 5.1099893000e-04 0.0000e+00 1.0000e+00
<vert_displacement>
200.96332735503228
</vert_displacement>
</event>
<event>
 4   1200 +8.5212000e+10 1.80579300e-02 7.81665300e-03            nan
       50 -1    0    0    0    0 +2.8335636902e-02 +4.8335484894e-02 +1.9639392910e+01 1.9639473466e+01 4.9935713700e-03 0.0000e+00 0.0000e+00
       11 -1    0    0    0    0 +2.4027281773e-18 +4.0986208258e-18 +1.6653277600e-15 5.1100000000e-04 5.1099893000e-04 0.0000e+00 1.0000e+00
       50  1    1    2    0    0 +1.0598661209e-02 +4.6302296773e-02 +1.9340178992e+01 1.9340237967e+01 4.9935713700e-03 0.0000e+00 0.0000e+00
       11  1    1    2    0    0 +1.7736975693e-02 +2.0331881213e-03 +2.9921391796e-01 2.9974649953e-01 5.1099893000e-04 0.0000e+00 1.0000e+00
<vert_displacement>
434.75584283007288
</vert_displacement>
</event>
<event>
 4   1200 +8.5212000e+10 1.36512100e-02 7.81665300e-03            nan
       50 -1    0    0    0    0 +6.6840315755e-03 +1.0420959751e-02 +8.2661615284e+00 8.2661723078e+00 4.9935713700e-03 0.0000e+00 0.0000e+00
       11 -1    0    0    0    0 -3.1981528853e-19 -4.9861856755e-19 -3.9551650892e-16 5.1100000000e-04 5.1099893000e-04 0.0000e+00 1.0000e+00
       50  1    1    2    0    0 +1.0233223529e-02 +2.2378490554e-02 +8.1050397013e+00 8.1050785937e+00 4.9935713700e-03 0.0000e+00 0.0000e+00
       11  1    1    2    0    0 -3.5491919536e-03 -1.1957530803e-02 +1.6112182712e-01 1.6160471404e-01 5.1099893000e-04 0.0000e+00 1.0000e+00
<vert_displacement>
189.62511826402110
</vert_displacement>
</event>
<event>
 4   1200 +8.5212000e+10 1.41144400e-02 7.81665300e-03            nan
       50 -1    0    0    0    0 +7.1415593808e-02 +4.9018694730e-02 +4.0824182742e+01 4.0824274941e+01 4.9935713700e-03 0.0000e+00 0.0000e+00
       11 -1    0    0    0    0 -6.9189418006e-18 -4.7490677860e-18 -3.9551606223e-15 5.1100000000e-04 5.1099893000e-04 0.0000e+00 1.0000e+00
       50  1    1    2    0    0 +6.5858145867e-02 +6.0922418611e-02 +4.0652926941e+01 4.0653026242e+01 4.9935713700e-03 0.0000e+00 0.0000e+00
       11  1    1    2    0    0 +5.5574479410e-03 -1.1903723882e-02 +1.7125580113e-01 1.7175969961e-01 5.1099893000e-04 0.0000e+00 1.0000e+00
<vert_displacement>
413.05971736913517
</vert_displacement>
</event>
<event>
 4   1200 +8.5212000e+10 8.44254500e-03 7.81665300e-03            nan
       50 -1    0    0    0    0 +5.2806301140e-03 +4.9511849692e-04 +4.1123939898e+00 4.1124004417e+00 4.9935713700e-03 0.0000e+00 0.0000e+00
       11 -1    0    0    0    0 +4.9896369281e-19 +4.6783461116e-20 +3.8857773545e-16 5.1100000000e-04 5.1099893000e-04 0.0000e+00 1.0000e+00
       50  1    1    2    0    0 +1.3926273377e-03 -5.1387855433e-03 +4.0665362077e+00 4.0665427590e+00 4.9935713700e-03 0.0000e+00 0.0000e+00
       11  1    1    2    0    0 +3.8880027763e-03 +5.6339040402e-03 +4.5857782096e-02 4.6368682740e-02 5.1099893000e-04 0.0000e+00 1.0000e+00
<vert_displacement>
284.18451340634221
</vert_displacement>
</event>
<event>
 4   1200 +8.5212000e+10 7.52839600e-03 7.81665300e-03            nan
       50 -1    0    0    0    0 +1.1541031568e-02 +3.3141801403e-03 +3.7560820246e+00 3.7561045367e+00 4.9935713700e-03 0.0000e+00 0.0000e+00
       11 -1    0    0    0    0 +1.0660255004e-20 +3.0612519527e-21 +3.4694292240e-18 5.1100000000e-04 5.1099893000e-04 0.0000e+00 1.0000e+00
       50  1    1    2    0    0 +6.4067951578e-03 +7.6476231132e-04 +3.7247749921e+00 3.7247839279e+00 4.9935713700e-03 0.0000e+00 0.0000e+00
       11  1    1    2    0    0 +5.1342364106e-03 +2.5494178289e-03 +3.1307032452e-02 3.1831608750e-02 5.1099893000e-04 0.0000e+00 1.0000e+00
<vert_displacement>
93.321472418071906
</vert_displacement>
</event>
<event>
 4   1200 +8.5212000e+10 3.10922200e-02 7.81665300e-03            nan
       50 -1    0    0    0    0 -4.4081346051e-02 +1.8218159554e-03 +2.0557318787e+01 2.0557366736e+01 4.9935713700e-03 0.0000e+00 0.0000e+00
       11 -1    0    0    0    0 -1.0712975712e-18 +4.4275122767e-20 +4.9959921052e-16 5.1100000000e-04 5.1099893000e-04 0.0000e+00 1.0000e+00
       50  1    1    2    0    0 -2.4226254351e-02 -2.3276123294e-02 +1.9590273126e+01 1.9590302569e+01 4.9935713700e-03 0.0000e+00 0.0000e+00
       11  1    1    2    0    0 -1.9855091700e-02 +2.5097939249e-02 +9.6704566108e-01 9.6757516656e-01 5.1099893000e-04 0.0000e+00 1.0000e+00
<vert_displacement>
427.04197762797673
</vert_displacement>
</event>
<event>
 4   1200 +8.5212000e+10 4.21005600e-02 7.81665300e-03            nan
       50 -1    0    0    0    0 -1.2399889134e-01 +5.8380409491e-02 +3.8426945246e+01 3.8427189981e+01 4.9935713700e-03 0.0000e+00 0.0000e+00
       11 -1    0    0    0    0 +4.9259738993e-19 -2.3192172951e-19 -1.5265469494e-16 5.1100000000e-04 5.1099893000e-04 0.0000e+00 1.0000e+00
       50  1    1    2    0    0 -1.0770722616e-01 +1.5193174096e-02 +3.6633346513e+01 3.6633508340e+01 4.9935713700e-03 0.0000e+00 0.0000e+00
       11  1    1    2    0    0 -1.6291665182e-02 +4.3187235394e-02 +1.7935987331e+00 1.7941926408e+00 5.1099893000e-04 0.0000e+00 1.0000e+00
<vert_displacement>
404.06040054443906
</vert_displacement>
</event>
<event>
 4   1200 +8.5212000e+10 1.71518700e-02 7.81665300e-03            nan
       50 -1    0    0    0    0 +7.0840249056e-04 +1.3138882266e-02 +1.7903287131e+01 1.7903292663e+01 4.9935713700e-03 0.0000e+00 0.0000e+00
       11 -1    0    0    0    0 +3.2947212608e-20 +6.1107852276e-19 +8.3266704359e-16 5.1100000000e-04 5.1099893000e-04 0.0000e+00 1.0000e+00
       50  1    1    2    0    0 -1.5420319371e-02 +9.8674545608e-03 +1.7635826556e+01 1.7635836765e+01 4.9935713700e-03 0.0000e+00 0.0000e+00
       11  1    1    2    0    0 +1.6128721862e-02 +3.2714277055e-03 +2.6746057475e-01 2.6796689735e-01 5.1099893000e-04 0.0000e+00 1.0000e+00
<vert_displacement>
48.270581288208689
</vert_displacement>
</event>
<event>
 4   1200 +8.5212000e+10 1.73937400e-02 7.81665300e-03            nan
       50 -1    0    0    0    0 +4.6847238093e-04 +7.0557616386e-02 +3.5152531279e+01 3.5152602447e+01 4.9935713700e-03 0.0000e+00 0.0000e+00
       11 -1    0    0    0    0 -3.7359248013e-20 -5.6267553799e-18 -2.8033074900e-15 5.1100000000e-04 5.1099893000e-04 0.0000e+00 1.0000e+00
       50  1    1    2    0    0 +5.7217594216e-03 +5.4197668467e-02 +3.4878795283e+01 3.4878838218e+01 4.9935713700e-03 0.0000e+00 0.0000e+00
       11  1    1    2    0    0 -5.2532870407e-03 +1.6359947918e-02 +2.7373599541e-01 2.7427522896e-01 5.1099893000e-04 0.0000e+00 1.0000e+00
<vert_displacement>
46.044811230388241
</vert_displacement>
</event>
<event>
 4   1200 +8.5212000e+10 1.99247600e-02 7.81665300e-03            nan
       50 -1    0    0    0    0 +4.6243616065e-02 -4.7012917087e-03 +2.1815018619e+01 2.1815068711e+01 4.9935713700e-03 0.0000e+00 0.0000e+00
       11 -1    0    0    0    0 +1.3826533612e-18 -1.4056549500e-19 +6.5225454634e-16 5.1100000000e-04 5.1099893000e-04 0.0000e+00 1.0000e+00
       50  1    1    2    0    0 +3.9903765658e-02 +1.3850245836e-02 +2.1444681018e+01 2.1444723198e+01 4.9935713700e-03 0.0000e+00 0.0000e+00
       11  1    1    2    0    0 +6.3398504071e-03 -1.8551537545e-02 +3.7033760103e-01 3.7085651282e-01 5.1099893000e-04 0.0000e+00 1.0000e+00
<vert_displacement>
2.5656693648143136
</vert_displacement>
</event>
<event>
 4   1200 +8.5212000e+10 4.19020900e-02 7.81665300e-03            nan
       50 -1    0    0    0    0 +4.7898869417e-02 +3.0127852841e-02 +1.9777454884e+01 1.9777536464e+01 4.9935713700e-03 0.0000e+00 0.0000e+00
       11 -1    0    0    0    0 -4.3021276767e-18 -2.7059901648e-18 -1.7763495687e-15 5.1100000000e-04 5.1099893000e-04 0.0000e+00 1.0000e+00
       50  1    1    2    0    0 +6.9074917560e-02 +5.9988667064e-02 +1.7906534090e+01 1.7906768498e+01 4.9935713700e-03 0.0000e+00 0.0000e+00
       11  1    1    2    0    0 -2.1176048143e-02 -2.9860814223e-02 +1.8709207936e+00 1.8712789664e+00 5.1099893000e-04 0.0000e+00 1.0000e+00
<vert_displacement>
20.512377982291497
</vert_displacement>
</event>
<event>
 4   1200 +8.5212000e+10 9.75363600e-03 7.81665300e-03            nan
       50 -1    0    0    0    0 +8.4345516391e-02 -5.5243196176e-02 +2.7619688392e+01 2.7619872877e+01 4.9935713700e-03 0.0000e+00 0.0000e+00
       11 -1    0    0    0    0 +9.1116921037e-18 -5.9678215977e-18 +2.9837044978e-15 5.1100000000e-04 5.1099893000e-04 0.0000e+00 1.0000e+00
       50  1    1    2    0    0 +7.7875558422e-02 -4.9536517146e-02 +2.7550859456e+01 2.7551014503e+01 4.9935713700e-03 0.0000e+00 0.0000e+00
       11  1    1    2    0    0 +6.4699579688e-03 -5.7066790308e-03 +6.8828935518e-02 6.9369373834e-02 5.1099893000e-04 0.0000e+00 1.0000e+00
<vert_displacement>
448.19591064145567
</vert_displacement>
</event>
<event>
 4   1200 +8.5212000e+10 2.40007700e-02 7.81665300e-03            nan
       50 -1    0    0    0    0 -4.2068805885e-02 +4.8863539336e-02 +1.8941809129e+01 1.8941919530e+01 4.9935713700e-03 0.0000e+00 0.0000e+00
       11 -1    0    0    0    0 -1.9109448125e-18 +2.2195906219e-18 +8.6041785914e-16 5.1100000000e-04 5.1099893000e-04 0.0000e+00 1.0000e+00
       50  1    1    2    0    0 -4.3090580005e-02 +2.4063508673e-02 +1.8386299525e+01 1.8386366444e+01 4.9935713700e-03 0.0000e+00 0.0000e+00
       11  1    1    2    0    0 +1.0217741204e-03 +2.4800030663e-02 +5.5550960407e-01 5.5606408523e-01 5.1099893000e-04 0.0000e+00 1.0000e+00
<vert_displacement>
149.23989809638547
</vert_displacement>
</event>
<event>
 4   1200 +8.5212000e+10 1.99525300e-02 7.81665300e-03            nan
       50 -1    0    0    0    0 +2.2019899954e-02 +5.9204703948e-03 +8.4713313769e+00 8.4713635361e+00 4.9935713700e-03 0.0000e+00 0.0000e+00
       11 -1    0    0    0    0 +1.7856138235e-18 +4.8009635833e-19 +6.8694800801e-16 5.1100000000e-04 5.1099893000e-04 0.0000e+00 1.0000e+00
       50  1    1    2    0    0 +1.1935710352e-02 +2.2698374657e-02 +8.0888702153e+00 8.0889124098e+00 4.9935713700e-03 0.0000e+00 0.0000e+00
       11  1    1    2    0    0 +1.0084189602e-02 -1.6777904262e-02 +3.8246116159e-01 3.8296212632e-01 5.1099893000e-04 0.0000e+00 1.0000e+00
<vert_displacement>
231.37592148480357
</vert_displacement>
</event>
<event>
 4   1200 +8.5212000e+10 1.03054900e-02 7.81665300e-03            nan
       50 -1    0    0    0    0 -6.2989967286e-02 +5.0481576982e-02 +3.0254615911e+01 3.0254724011e+01 4.9935713700e-03 0.0000e+00 0.0000e+00
       11 -1    0    0    0    0 +3.0626988906e-18 -2.4545157980e-18 -1.4710402716e-15 5.1100000000e-04 5.1099893000e-04 0.0000e+00 1.0000e+00
       50  1    1    2    0    0 -7.0926147338e-02 +5.4300963570e-02 +3.0174863076e+01 3.0174995704e+01 4.9935713700e-03 0.0000e+00 0.0000e+00
       11  1    1    2    0    0 +7.9361800524e-03 -3.8193865877e-03 +7.9752834942e-02 8.0239307505e-02 5.1099893000e-04 0.0000e+00 1.0000e+00
<vert_displacement>
152.78802060801468
</vert_displacement>
</event>
<event>
 4   1200 +8.5212000e+10 5.04145500e-03 7.81665300e-03            nan
       50 -1    0    0    0    0 -5.3592660697e-02 -2.6639477743e-02 +3.2603187745e+01 3.2603243058e+01 4.9935713700e-03 0.0000e+00 0.0000e+00
       11 -1    0    0    0    0 +9.1248294608e-20 +4.5357085871e-20 -5.5511057705e-17 5.1100000000e-04 5.1099893000e-04 0.0000e+00 1.0000e+00
       50  1    1    2    0    0 -5.4284406462e-02 -2.6669527895e-02 +3.2602716404e+01 3.2602772886e+01 4.9935713700e-03 0.0000e+00 0.0000e+00
       11  1    1    2    0    0 +6.9174576461e-04 +3.0050152041e-05 +4.7134152947e-04 9.8117172725e-04 5.1099893000e-04 0.0000e+00 1.0000e+00
<vert_displacement>
1.8106986774802589
</vert_displacement>
</event>
<event>
 4   1200 +8.5212000e+10 5.11349700e-03 7.81665300e-03            nan
       50 -1    0    0    0    0 -3.7711254069e-02 -4.8923132028e-02 +2.1450104793e+01 2.1450194316e+01 4.9935713700e-03 0.0000e+00 0.0000e+00
       11 -1    0    0    0    0 -2.0738575612e-18 -2.6904331287e-18 +1.1796070725e-15 5.1100000000e-04 5.1099893000e-04 0.0000e+00 1.0000e+00
       50  1    1    2    0    0 -3.7242511158e-02 -4.9917585332e-02 +2.1448917247e+01 2.1449008246e+01 4.9935713700e-03 0.0000e+00 0.0000e+00
       11  1    1    2    0    0 -4.6874291137e-04 +9.9445330331e-04 +1.1875463463e-03 1.6970690971e-03 5.1099893000e-04 0.0000e+00 1.0000e+00
<vert_displacement>
144.77642306160274
</vert_displacement>
</event>
<event>
 4   1200 +8.5212000e+10 8.30055100e-03 7.81665300e-03            nan
       50 -1    0    0    0    0 +3.5609205131e-02 -3.9624533621e-02 +1.8865504551e+01 1.8865580431e+01 4.9935713700e-03 0.0000e+00 0.0000e+00
       11 -1    0    0    0    0 +1.5978727889e-18 -1.7780504735e-18 +8.4654168099e-16 5.1100000000e-04 5.1099893000e-04 0.0000e+00 1.0000e+00
       50  1    1    2    0    0 +4.0951342067e-02 -4.3348218933e-02 +1.8822369627e+01 1.8822464754e+01 4.9935713700e-03 0.0000e+00 0.0000e+00
       11  1    1    2    0    0 -5.3421369357e-03 +3.7236853124e-03 +4.3134923596e-02 4.3626677766e-02 5.1099893000e-04 0.0000e+00 1.0000e+00
<vert_displacement>
437.50976123617465
</vert_displacement>
</event>
<event>
 4   1200 +8.5212000e+10 1.87381000e-02 7.81665300e-03            nan
       50 -1    0    0    0    0 +5.1512325088e-02 +1.6471418596e-02 +1.6658635166e+01 1.6658723701e+01 4.9935713700e-03 0.0000e+00 0.0000e+00
       11 -1    0    0    0    0 -8.4109637539e-18 -2.6894632411e-18 -2.7200320764e-15 5.1100000000e-04 5.1099893000e-04 0.0000e+00 1.0000e+00
       50  1    1    2    0    0 +4.6211567765e-02 -1.3929895034e-03 +1.6333127681e+01 1.6333193878e+01 4.9935713700e-03 0.0000e+00 0.0000e+00
       11  1    1    2    0    0 +5.3007573230e-03 +1.7864408100e-02 +3.2550748455e-01 3.2604082371e-01 5.1099893000e-04 0.0000e+00 1.0000e+00
<vert_displacement>
495.37964446344324
</vert_displacement>
</event>
<event>
 4   1200 +8.5212000e+10 2.45003300e-02 7.81665300e-03            nan
       50 -1    0    0    0    0 +9.6342734901e-04 +6.4848126253e-03 +2.9367470335e+00 2.9367585968e+00 4.9935713700e-03 0.0000e+00 0.0000e+00
       11 -1    0    0    0    0 +1.4568725845e-19 +9.8061838694e-19 +4.4408810327e-16 5.1100000000e-04 5.1099893000e-04 0.0000e+00 1.0000e+00
       50  1    1    2    0    0 +4.3953679180e-03 -2.1889212392e-02 +7.8680057502e-01 7.8713311294e-01 4.9935713700e-03 0.0000e+00 0.0000e+00
       11  1    1    2    0    0 -3.4319405690e-03 +2.8374025017e-02 +2.1499464585e+00 2.1501364838e+00 5.1099893000e-04 0.0000e+00 1.0000e+00
<vert_displacement>
369.77064361460367
</vert_displacement>
</event>
<event>
 4   1200 +8.5212000e+10 6.28535400e-03 7.81665300e-03            nan
       50 -1    0    0    0    0 +5.2126832926e-04 -9.3303398183e-03 +9.4755807842e+00 9.4755867080e+00 4.9935713700e-03 0.0000e+00 0.0000e+00
       11 -1    0    0    0    0 +3.3973128619e-20 -6.0809532617e-19 +6.1756125713e-16 5.1100000000e-04 5.1099893000e-04 0.0000e+00 1.0000e+00
       50  1    1    2    0    0 +3.8447320459e-03 -7.4403046456e-03 +9.4613038336e+00 9.4613088580e+00 4.9935713700e-03 0.0000e+00 0.0000e+00
       11  1    1    2    0    0 -3.3234637166e-03 -1.8900351727e-03 +1.4276950658e-02 1.4788849990e-02 5.1099893000e-04 0.0000e+00 1.0000e+00
<vert_displacement>
322.99710126331854
</vert_displacement>
</event>
<event>
 4   1200 +8.5212000e+10 8.47104200e-03 7.81665300e-03            nan
       50 -1    0    0    0    0 -6.0166063916e-02 -3.2099283657e-02 +1.8523602412e+01 1.8523728609e+01 4.9935713700e-03 0.0000e+00 0.0000e+00
       11 -1    0    0    0    0 -6.0852330915e-18 -3.2465414955e-18 +1.8734886585e-15 5.1100000000e-04 5.1099893000e-04 0.0000e+00 1.0000e+00
       50  1    1    2    0    0 -5.3247510481e-02 -3.3018704692e-02 +1.8477692806e+01 1.8477799704e+01 4.9935713700e-03 0.0000e+00 0.0000e+00
       11  1    1    2    0    0 -6.9185534346e-03 +9.1942103524e-04 +4.5909606195e-02 4.6439905012e-02 5.1099893000e-04 0.0000e+00 1.0000e+00
<vert_displacement>
357.88716004675427
</vert_displacement>
</event>
<event>
 4   1200 +8.5212000e+10 1.62591400e-02 7.81665300e-03            nan
       50 -1    0    0    0    0 -1.0506725252e-02 -3.0081204988e-02 +1.4803759847e+01 1.4803794981e+01 4.9935713700e-03 0.0000e+00 0.0000e+00
       11 -1    0    0    0    0 -2.9548527001e-19 -8.4598700021e-19 +4.1633266986e-16 5.1100000000e-04 5.1099893000e-04 0.0000e+00 1.0000e+00
       50  1    1    2    0    0 -1.1242903224e-02 -4.5044152617e-02 +1.4565614158e+01 1.4565689002e+01 4.9935713700e-03 0.0000e+00 0.0000e+00
       11  1    1    2    0    0 +7.3617797145e-04 +1.4962947629e-02 +2.3814568967e-01 2.3861697841e-01 5.1099893000e-04 0.0000e+00 1.0000e+00
<vert_displacement>
289.63838553117887
</vert_displacement>
</event>
<event>
 4   1200 +8.5212000e+10 1.42868600e-02 7.81665300e-03            nan
       50 -1    0    0    0    0 -6.4779594350e-03 +2.2353621276e-03 +5.5496450493e+00 5.5496515269e+00 4.9935713700e-03 0.0000e+00 0.0000e+00
       11 -1    0    0    0    0 -3.6448146421e-19 +1.2577233147e-19 +3.1224998762e-16 5.1100000000e-04 5.1099893000e-04 0.0000e+00 1.0000e+00
       50  1    1    2    0    0 -5.9327761318e-03 -1.1219259415e-02 +5.3683656327e+00 5.3683829569e+00 4.9935713700e-03 0.0000e+00 0.0000e+00
       11  1    1    2    0    0 -5.4518330321e-04 +1.3454621543e-02 +1.8127941659e-01 1.8177956998e-01 5.1099893000e-04 0.0000e+00 1.0000e+00
<vert_displacement>
393.76950482068946
</vert_displacement>
</event>
<event>
 4   1200 +8.5212000e+10 4.06236500e-02 7.81665300e-03            nan
       50 -1    0    0    0    0 +1.0590785054e-02 +1.7219044275e-02 +7.9237116165e+00 7.9237389771e+00 4.9935713700e-03 0.0000e+00 0.0000e+00
       11 -1    0    0    0    0 -4.1735040609e-19 -6.7854980383e-19 -3.1224920948e-16 5.1100000000e-04 5.1099893000e-04 0.0000e+00 1.0000e+00
       50  1    1    2    0    0 -1.9934126485e-02 +4.1833133652e-02 +5.7165798027e+00 5.7167698009e+00 4.9935713700e-03 0.0000e+00 0.0000e+00
       11  1    1    2    0    0 +3.0524911539e-02 -2.4614089377e-02 +2.2071318138e+00 2.2074801762e+00 5.1099893000e-04 0.0000e+00 1.0000e+00
<vert_displacement>
494.63468832163591
</vert_displacement>
</event>
<event>
 4   1200 +8.5212000e+10 1.96249800e-02 7.81665300e-03            nan
       50 -1    0    0    0    0 -2.2082694785e-02 +9.2861174287e-03 +1.5768255820e+01 1.5768274808e+01 4.9935713700e-03 0.0000e+00 0.0000e+00
       11 -1    0    0    0    0 -2.5265709979e-19 +1.0624624941e-19 +1.8041103330e-16 5.1100000000e-04 5.1099893000e-04 0.0000e+00 1.0000e+00
       50  1    1    2    0    0 -4.0514336553e-02 +7.8086203122e-03 +1.5407503782e+01 1.5407559836e+01 4.9935713700e-03 0.0000e+00 0.0000e+00
       11  1    1    2    0    0 +1.8431641768e-02 +1.4774971165e-03 +3.6075203786e-01 3.6122597132e-01 5.1099893000e-04 0.0000e+00 1.0000e+00
<vert_displacement>
264.00572726546403
</vert_displacement>
</event>
<event>
 4   1200 +8.5212000e+10 1.37817300e-02 7.81665300e-03            nan
       50 -1    0    0    0    0 +7.6426300052e-03 -6.9276229433e-03 +4.6482097637e+00 4.6482238914e+00 4.9935713700e-03 0.0000e+00 0.0000e+00
       11 -1    0    0    0    0 -1.0039890273e-18 +9.1006072717e-19 -6.1062115999e-16 5.1100000000e-04 5.1099893000e-04 0.0000e+00 1.0000e+00
       50  1    1    2    0    0 +6.5349918534e-03 -1.9496178231e-02 +4.4806562731e+00 4.4807062368e+00 4.9935713700e-03 0.0000e+00 0.0000e+00
       11  1    1    2    0    0 +1.1076381518e-03 +1.2568555287e-02 +1.6755349056e-01 1.6802865459e-01 5.1099893000e-04 0.0000e+00 1.0000e+00
<vert_displacement>
378.27999157442878
</vert_displacement>
</event>
<event>
 4   1200 +8.5212000e+10 2.84251500e-02 7.81665300e-03            nan
       50 -1    0    0    0    0 +1.7966317709e-02 -3.9051585175e-02 +2.0713230394e+01 2.0713275600e+01 4.9935713700e-03 0.0000e+00 0.0000e+00
       11 -1    0    0    0    0 -9.5094990268e-19 +2.0669845498e-18 -1.0963428759e-15 5.1100000000e-04 5.1099893000e-04 0.0000e+00 1.0000e+00
       50  1    1    2    0    0 -6.8256985169e-03 -2.3329329302e-02 +1.9916368324e+01 1.9916383783e+01 4.9935713700e-03 0.0000e+00 0.0000e+00
       11  1    1    2    0    0 +2.4792016226e-02 -1.5722255873e-02 +7.9686206993e-01 7.9740281729e-01 5.1099893000e-04 0.0000e+00 1.0000e+00
<vert_displacement>
34.798473550115354
</vert_displacement>
</event>
<event>
 4   1200 +8.5212000e+10 2.27608500e-02 7.81665300e-03            nan
       50 -1    0    0    0    0 +1.9654147115e-02 -2.2247562327e-02 +1.6578157859e+01 1.6578185190e+01 4.9935713700e-03 0.0000e+00 0.0000e+00
       11 -1    0    0    0    0 +1.8097982481e-18 -2.0486057772e-18 +1.5265542115e-15 5.1100000000e-04 5.1099893000e-04 0.0000e+00 1.0000e+00
       50  1    1    2    0    0 +3.6037482072e-02 -7.2609501258e-03 +1.6080687760e+01 1.6080730555e+01 4.9935713700e-03 0.0000e+00 0.0000e+00
       11  1    1    2    0    0 -1.6383334957e-02 -1.4986612202e-02 +4.9747009937e-01 4.9796563446e-01 5.1099893000e-04 0.0000e+00 1.0000e+00
<vert_displacement>
62.681380567914047
</vert_displacement>
</event>
<event>
 4   1200 +8.5212000e+10 1.23505300e-02 7.81665300e-03            nan
       50 -1    0    0    0    0 -1.8928668909e-02 +4.4884625361e-03 +1.0879037102e+01 1.0879055642e+01 4.9935713700e-03 0.0000e+00 0.0000e+00
       11 -1    0    0    0    0 -1.6781623371e-18 +3.9793441448e-19 +9.6450471062e-16 5.1100000000e-04 5.1099893000e-04 0.0000e+00 1.0000e+00
       50  1    1    2    0    0 -1.5839338522e-02 +1.5361798849e-02 +1.0752708671e+01 1.0752732470e+01 4.9935713700e-03 0.0000e+00 0.0000e+00
       11  1    1    2    0    0 -3.0893303871e-03 -1.0873336313e-02 +1.2632843099e-01 1.2683417127e-01 5.1099893000e-04 0.0000e+00 1.0000e+00
<vert_displacement>
299.20828495246167
</vert_displacement>
</event>
<event>
 4   1200 +8.5212000e+10 6.30524300e-03 7.81665300e-03            nan
       50 -1    0    0    0    0 -8.7769374288e-02 -7.6297546379e-02 +3.1378194459e+01 3.1378410368e+01 4.9935713700e-03 0.0000e+00 0.0000e+00
       11 -1    0    0    0    0 +5.7062349165e-18 +4.9604059130e-18 -2.0400207965e-15 5.1100000000e-04 5.1099893000e-04 0.0000e+00 1.0000e+00
       50  1    1    2    0    0 -8.7729435571e-02 -7.2412562454e-02 +3.1363695668e+01 3.1363902355e+01 4.9935713700e-03 0.0000e+00 0.0000e+00
       11  1    1    2    0    0 -3.9938717208e-05 -3.8849839250e-03 +1.4498790845e-02 1.5019012986e-02 5.1099893000e-04 0.0000e+00 1.0000e+00
<vert_displacement>
339.54904232664722
</vert_displacement>
</event>
<event>
 4   1200 +8.5212000e+10 3.84955700e-02 7.81665300e-03            nan
       50 -1    0    0    0    0 -2.1453055019e-02 +7.5373893567e-03 +1.8038774833e+01 1.8038789855e+01 4.9935713700e-03 0.0000e+00 0.0000e+00
       11 -1    0    0    0    0 -1.1223050562e-18 +3.9431447772e-19 +9.4368882119e-16 5.1100000000e-04 5.1099893000e-04 0.0000e+00 1.0000e+00
       50  1    1    2    0    0 -2.1608027238e-02 -3.1232109233e-02 +1.6477894436e+01 1.6477938959e+01 4.9935713700e-03 0.0000e+00 0.0000e+00
       11  1    1    2    0    0 +1.5497221919e-04 +3.8769498590e-02 +1.5608803968e+00 1.5613618967e+00 5.1099893000e-04 0.0000e+00 1.0000e+00
<vert_displacement>
252.98621488247832
</vert_displacement>
</event>
<event>
 4   1200 +8.5212000e+10 5.54997700e-02 7.81665300e-03            nan
       50 -1    0    0    0    0 +6.6845032192e-03 -1.0134831589e-01 +5.1796856398e+01 5.1796956222e+01 4.9935713700e-03 0.0000e+00 0.0000e+00
       11 -1    0    0    0    0 -5.9280674389e-19 +8.9879476715e-18 -4.5935389330e-15 5.1100000000e-04 5.1099893000e-04 0.0000e+00 1.0000e+00
       50  1    1    2    0    0 +4.9151753724e-02 -1.2999697652e-01 +4.8611234095e+01 4.8611433020e+01 4.9935713700e-03 0.0000e+00 0.0000e+00
       11  1    1    2    0    0 -4.2467250505e-02 +2.8648660625e-02 +3.1856223035e+00 3.1860342018e+00 5.1099893000e-04 0.0000e+00 1.0000e+00
<vert_displacement>
165.70395796408374
</vert_displacement>
</event>
<event>
 4   1200 +8.5212000e+10 9.01667400e-03 7.81665300e-03            nan
       50 -1    0    0    0    0 +3.6027819102e-03 -8.6280069521e-04 +4.4643770999e+00 4.4643814298e+00 4.9935713700e-03 0.0000e+00 0.0000e+00
       11 -1    0    0    0    0 -6.2716992178e-19 +1.5019578149e-19 -7.7715584966e-16 5.1100000000e-04 5.1099893000e-04 0.0000e+00 1.0000e+00
       50  1    1    2    0    0 -3.4740481204e-03 -3.4824246982e-03 +4.4085218897e+00 4.4085274621e+00 4.9935713700e-03 0.0000e+00 0.0000e+00
       11  1    1    2    0    0 +7.0768300306e-03 +2.6196240030e-03 +5.5855210191e-02 5.6364967654e-02 5.1099893000e-04 0.0000e+00 1.0000e+00
<vert_displacement>
33.219076954682798
</vert_displacement>
</event>
<event>
 4   1200 +8.5212000e+10 1.28685600e-02 7.81665300e-03            nan
       50 -1    0    0    0    0 -5.1321439582e-03 -1.2108592573e-02 +1.0816210274e+01 1.0816219422e+01 4.9935713700e-03 0.0000e+00 0.0000e+00
       11 -1    0    0    0    0 -2.9631671057e-20 -6.9911879910e-20 +6.2449998973e-17 5.1100000000e-04 5.1099893000e-04 0.0000e+00 1.0000e+00
       50  1    1    2    0    0 -6.9053147588e-03 -2.3669169001e-02 +1.0676752124e+01 1.0676781761e+01 4.9935713700e-03 0.0000e+00 0.0000e+00
       11  1    1    2    0    0 +1.7731708006e-03 +1.1560576428e-02 +1.3945814938e-01 1.3994866063e-01 5.1099893000e-04 0.0000e+00 1.0000e+00
<vert_displacement>
71.732499575407090
</vert_displacement>
</event>
<event>
 4   1200 +8.5212000e+10 2.74928500e-02 7.81665300e-03            nan
       50 -1    0    0    0    0 -5.4791969602e-03 +1.9916193269e-02 +9.1561031337e+00 9.1561277954e+00 4.9935713700e-03 0.0000e+00 0.0000e+00
       11 -1    0    0    0    0 -3.8201745386e-19 +1.3885854987e-18 +6.3837661464e-16 5.1100000000e-04 5.1099893000e-04 0.0000e+00 1.0000e+00
       50  1    1    2    0    0 -1.3558685525e-02 -7.4340199855e-03 +8.3739248822e+00 8.3739406477e+00 4.9935713700e-03 0.0000e+00 0.0000e+00
       11  1    1    2    0    0 +8.0794885645e-03 +2.7350213255e-02 +7.8217825147e-01 7.8269814775e-01 5.1099893000e-04 0.0000e+00 1.0000e+00
<vert_displacement>
0.38362816975304692
</vert_displacement>
</event>
<event>
 4   1200 +8.5212000e+10 1.87473500e-02 7.81665300e-03            nan
       50 -1    0    0    0    0 +5.6642151644e-02 +2.6859662850e-02 +2.0099540093e+01 2.0099638471e+01 4.9935713700e-03 0.0000e+00 0.0000e+00
       11 -1    0    0    0    0 -2.7767072960e-18 -1.3167123712e-18 -9.8531814209e-16 5.1100000000e-04 5.1099893000e-04 0.0000e+00 1.0000e+00
       50  1    1    2    0    0 +6.8434642124e-02 +3.9272437595e-02 +1.9774728555e+01 1.9774886599e+01 4.9935713700e-03 0.0000e+00 0.0000e+00
       11  1    1    2    0    0 -1.1792490480e-02 -1.2412774745e-02 +3.2481153778e-01 3.2526287215e-01 5.1099893000e-04 0.0000e+00 1.0000e+00
<vert_displacement>
317.47063428917721
</vert_displacement>
</event>
<event>
 4   1200 +8.5212000e+10 6.04886000e-03 7.81665300e-03            nan
       50 -1    0    0    0    0 -3.5782645950e-03 -1.4300349779e-03 +1.3691418118e+00 1.3691563408e+00 4.9935713700e-03 0.0000e+00 0.0000e+00
       11 -1    0    0    0    0 -6.3471767068e-20 -2.5366164129e-20 +2.4286032475e-17 5.1100000000e-04 5.1099893000e-04 0.0000e+00 1.0000e+00
       50  1    1    2    0    0 -2.1053446156e-03 +1.6756985184e-03 +1.3576440411e+00 1.3576558911e+00 4.9935713700e-03 0.0000e+00 0.0000e+00
       11  1    1    2    0    0 -1.4729199795e-03 -3.1057334963e-03 +1.1497770656e-02 1.2011449695e-02 5.1099893000e-04 0.0000e+00 1.0000e+00
<vert_displacement>
104.80129503715472
</vert_displacement>
</event>
<event>
 4   1200 +8.5212000e+10 1.67702500e-02 7.81665300e-03            nan
       50 -1    0    0    0    0 +6.4036758470e-02 +4.5790917083e-02 +2.4132675557e+01 2.4132804478e+01 4.9935713700e-03 0.0000e+00 0.0000e+00
       11 -1    0    0    0    0 -3.5720171222e-18 -2.5542507736e-18 -1.3461382549e-15 5.1100000000e-04 5.1099893000e-04 0.0000e+00 1.0000e+00
       50  1    1    2    0    0 +7.7826437999e-02 +5.2176329113e-02 +2.3879167430e+01 2.3879351780e+01 4.9935713700e-03 0.0000e+00 0.0000e+00
       11  1    1    2    0    0 -1.3789679529e-02 -6.3854120298e-03 +2.5350812677e-01 2.5396369860e-01 5.1099893000e-04 0.0000e+00 1.0000e+00
<vert_displacement>
455.63084918234370
</vert_displacement>
</event>
<event>
 4   1200 +8.5212000e+10 2.79296700e-02 7.81665300e-03            nan
       50 -1    0    0    0    0 -2.8597614493e-02 +7.8083219059e-02 +3.4724736148e+01 3.4724836073e+01 4.9935713700e-03 0.0000e+00 0.0000e+00
       11 -1    0    0    0    0 +1.6800692583e-18 -4.5872782838e-18 -2.0400289584e-15 5.1100000000e-04 5.1099893000e-04 0.0000e+00 1.0000e+00
       50  1    1    2    0    0 -1.7070459487e-02 +1.0160791865e-01 +3.3969362895e+01 3.3969519514e+01 4.9935713700e-03 0.0000e+00 0.0000e+00
       11  1    1    2    0    0 -1.1527155006e-02 -2.3524699591e-02 +7.5537325298e-01 7.5582755919e-01 5.1099893000e-04 0.0000e+00 1.0000e+00
<vert_displacement>
202.44266024299870
</vert_displacement>
</event>
<event>
 4   1200 +8.5212000e+10 3.11026500e-02 7.81665300e-03            nan
       50 -1    0    0    0    0 -2.7749884111e-02 +1.7524046794e-03 +8.2139743618e+00 8.2140229412e+00 4.9935713700e-03 0.0000e+00 0.0000e+00
       11 -1    0    0    0    0 -8.4391380345e-19 +5.3293141414e-20 +2.4979874933e-16 5.1100000000e-04 5.1099893000e-04 0.0000e+00 1.0000e+00
       50  1    1    2    0    0 -4.6862901556e-02 -1.9150519225e-02 +7.1547155659e+00 7.1548964101e+00 4.9935713700e-03 0.0000e+00 0.0000e+00
       11  1    1    2    0    0 +1.9113017444e-02 +2.0902923905e-02 +1.0592587959e+00 1.0596375311e+00 5.1099893000e-04 0.0000e+00 1.0000e+00
<vert_displacement>
449.13391306384676
</vert_displacement>
</event>
<event>
 4   1200 +8.5212000e+10 2.13716700e-02 7.81665300e-03            nan
       50 -1    0    0    0    0 -1.5183698586e-01 -1.6966817584e-02 +5.0586440536e+01 5.0586671500e+01 4.9935713700e-03 0.0000e+00 0.0000e+00
       11 -1    0    0    0    0 +2.0827239853e-18 +2.3273116057e-19 -6.9388622568e-16 5.1100000000e-04 5.1099893000e-04 0.0000e+00 1.0000e+00
       50  1    1    2    0    0 -1.3002803149e-01 -2.0037821359e-02 +5.0160390528e+01 5.0160563311e+01 4.9935713700e-03 0.0000e+00 0.0000e+00
       11  1    1    2    0    0 -2.1808954366e-02 +3.0710037754e-03 +4.2605000839e-01 4.2661918888e-01 5.1099893000e-04 0.0000e+00 1.0000e+00
<vert_displacement>
478.05342552971962
</vert_displacement>
</event>
<event>
 4   1200 +8.5212000e+10 1.21739900e-02 7.81665300e-03            nan
       50 -1    0    0    0    0 +2.4607798862e-02 +5.1306495318e-03 +8.1175218007e+00 8.1175622565e+00 4.9935713700e-03 0.0000e+00 0.0000e+00
       11 -1    0    0    0    0 +1.4724328893e-18 +3.0699767811e-19 +4.8572024446e-16 5.1100000000e-04 5.1099893000e-04 0.0000e+00 1.0000e+00
       50  1    1    2    0    0 +3.3949467344e-02 +1.0431687626e-02 +7.9950118493e+00 7.9950922942e+00 4.9935713700e-03 0.0000e+00 0.0000e+00
       11  1    1    2    0    0 -9.3416684812e-03 -5.3010380938e-03 +1.2250995139e-01 1.2298096229e-01 5.1099893000e-04 0.0000e+00 1.0000e+00
<vert_displacement>
466.93748592767224
</vert_displacement>
</event>
<event>
 4   1200 +8.5212000e+10 2.95310300e-02 7.81665300e-03            nan
       50 -1    0    0    0    0 -1.4894464813e-02 +5.1188958261e-02 +2.1192361022e+01 2.1192428667e+01 4.9935713700e-03 0.0000e+00 0.0000e+00
       11 -1    0    0    0    0 +1.5898349208e-18 -5.4639085342e-18 -2.2620722551e-15 5.1100000000e-04 5.1099893000e-04 0.0000e+00 1.0000e+00
       50  1    1    2    0    0 -2.4567812040e-02 +2.1871948806e-02 +2.0328210356e+01 2.0328237582e+01 4.9935713700e-03 0.0000e+00 0.0000e+00
       11  1    1    2    0    0 +9.6733472278e-03 +2.9317009455e-02 +8.6415066634e-01 8.6470208508e-01 5.1099893000e-04 0.0000e+00 1.0000e+00
<vert_displacement>
188.10655091712525
</vert_displacement>
</event>
<event>
 4   1200 +8.5212000e+10 3.78175200e-02 7.81665300e-03            nan
       50 -1    0    0    0    0 +1.9016880531e-02 -1.1971604595e-02 +7.3145447882e+00 7.3145810102e+00 4.9935713700e-03 0.0000e+00 0.0000e+00
       11 -1    0    0    0    0 -1.3349711863e-18 +8.4039793813e-19 -5.1347572578e-16 5.1100000000e-04 5.1099893000e-04 0.0000e+00 1.0000e+00
       50  1    1    2    0    0 +1.4663464876e-02 +2.8521998147e-02 +5.4757035870e+00 5.4757997799e+00 4.9935713700e-03 0.0000e+00 0.0000e+00
       11  1    1    2    0    0 +4.3534156553e-03 -4.0493602742e-02 +1.8388412012e+00 1.8392922303e+00 5.1099893000e-04 0.0000e+00 1.0000e+00
<vert_displacement>
407.57246424050328
</vert_displacement>
</event>
<event>
 4   1200 +8.5212000e+10 1.01336100e-02 7.81665300e-03            nan
       50 -1    0    0    0    0 -3.0296583701e-02 -1.6880001885e-02 +1.3147651970e+01 1.3147698661e+01 4.9935713700e-03 0.0000e+00 0.0000e+00
       11 -1    0    0    0    0 +1.0553053302e-18 +5.8797243079e-19 -4.5796540433e-16 5.1100000000e-04 5.1099893000e-04 0.0000e+00 1.0000e+00
       50  1    1    2    0    0 -2.7847140092e-02 -8.2619396641e-03 +1.3071138605e+01 1.3071171834e+01 4.9935713700e-03 0.0000e+00 0.0000e+00
       11  1    1    2    0    0 -2.4494436087e-03 -8.6180622207e-03 +7.6513364992e-02 7.7037827804e-02 5.1099893000e-04 0.0000e+00 1.0000e+00
<vert_displacement>
379.00344267458769
</vert_displacement>
</event>
<event>
 4   1200 +8.5212000e+10 5.17149500e-03 7.81665300e-03            nan
       50 -1    0    0    0    0 -1.1662306616e-02 +4.8877447341e-03 +9.9625652903e+00 9.9625745668e+00 4.9935713700e-03 0.0000e+00 0.0000e+00
       11 -1    0    0    0    0 +1.2509037456e-18 -5.2426148588e-19 -1.0685888004e-15 5.1100000000e-04 5.1099893000e-04 0.0000e+00 1.0000e+00
       50  1    1    2    0    0 -1.0660911027e-02 +5.7868529218e-03 +9.9607959418e+00 9.9608045795e+00 4.9935713700e-03 0.0000e+00 0.0000e+00
       11  1    1    2    0    0 -1.0013955893e-03 -8.9910818762e-04 +1.7693485732e-03 2.2809872729e-03 5.1099893000e-04 0.0000e+00 1.0000e+00
<vert_displacement>
281.14743825879327
</vert_displacement>
</event>
<event>
 4   1200 +8.5212000e+10 2.13856500e-02 7.81665300e-03            nan
       50 -1    0    0    0    0 +2.4781148471e-03 -1.2047587915e-02 +2.0585445805e+01 2.0585450085e+01 4.9935713700e-03 0.0000e+00 0.0000e+00
       11 -1    0    0    0    0 -6.1813458370e-20 +3.0051192941e-19 -5.1347805723e-16 5.1100000000e-04 5.1099893000e-04 0.0000e+00 1.0000e+00
       50  1    1    2    0    0 +2.1894854534e-02 -1.9100633297e-02 +2.0153241796e+01 2.0153263359e+01 4.9935713700e-03 0.0000e+00 0.0000e+00
       11  1    1    2    0    0 -1.9416739687e-02 +7.0530453827e-03 +4.3220400939e-01 4.3269772599e-01 5.1099893000e-04 0.0000e+00 1.0000e+00
<vert_displacement>
54.960618293016715
</vert_displacement>
</event>
<event>
 4   1200 +8.5212000e+10 5.63003600e-03 7.81665300e-03            nan
       50 -1    0    0    0    0 -8.2753148803e-03 -1.8496784149e-02 +8.5353697417e+00 8.5353952559e+00 4.9935713700e-03 0.0000e+00 0.0000e+00
       11 -1    0    0    0    0 -2.9600829998e-19 -6.6163060986e-19 +3.0531047138e-16 5.1100000000e-04 5.1099893000e-04 0.0000e+00 1.0000e+00
       50  1    1    2    0    0 -7.3403703398e-03 -1.6053576664e-02 +8.5287543804e+00 8.5287741097e+00 4.9935713700e-03 0.0000e+00 0.0000e+00
       11  1    1    2    0    0 -9.3494454057e-04 -2.4432074855e-03 +6.6153612936e-03 7.1321461751e-03 5.1099893000e-04 0.0000e+00 1.0000e+00
<vert_displacement>
192.70849890729502
</vert_displacement>
</event>
<event>
 4   1200 +8.5212000e+10 9.93760400e-03 7.81665300e-03            nan
       50 -1    0    0    0    0 -1.7895471441e-02 +1.0911529055e-02 +8.6230866134e+00 8.6231135321e+00 4.9935713700e-03 0.0000e+00 0.0000e+00
       11 -1    0    0    0    0 -2.7936441776e-18 +1.7033879053e-18 +1.3461414408e-15 5.1100000000e-04 5.1099893000e-04 0.0000e+00 1.0000e+00
       50  1    1    2    0    0 -1.3641299067e-02 +3.2704734904e-03 +8.5502522555e+00 8.5502652210e+00 4.9935713700e-03 0.0000e+00 0.0000e+00
       11  1    1    2    0    0 -4.2541723744e-03 +7.6410555645e-03 +7.2834357891e-02 7.3359311080e-02 5.1099893000e-04 0.0000e+00 1.0000e+00
<vert_displacement>
372.26545509968565
</vert_displacement>
</event>
<event>
 4   1200 +8.5212000e+10 3.23335700e-02 7.81665300e-03            nan
       50 -1    0    0    0    0 -7.6335894450e-02 +4.7089060324e-02 +2.3094041770e+01 2.3094216479e+01 4.9935713700e-03 0.0000e+00 0.0000e+00
       11 -1    0    0    0    0 +1.1467950981e-18 -7.0741954282e-19 -3.4694207866e-16 5.1100000000e-04 5.1099893000e-04 0.0000e+00 1.0000e+00
       50  1    1    2    0    0 -7.6972734402e-02 +1.3274114958e-02 +2.2048096419e+01 2.2048235341e+01 4.9935713700e-03 0.0000e+00 0.0000e+00
       11  1    1    2    0    0 +6.3683995180e-04 +3.3814945366e-02 +1.0459453512e+00 1.0464921380e+00 5.1099893000e-04 0.0000e+00 1.0000e+00
<vert_displacement>
279.00158175955630
</vert_displacement>
</event>
<event>
 4   1200 +8.5212000e+10 1.27032800e-02 7.81665300e-03            nan
       50 -1    0    0    0    0 +9.1017689524e-02 +8.5011048990e-03 +4.3721908650e+01 4.3722004500e+01 4.9935713700e-03 0.0000e+00 0.0000e+00
       11 -1    0    0    0    0 +7.8869417785e-18 +7.3664492850e-19 +3.7886277906e-15 5.1100000000e-04 5.1099893000e-04 0.0000e+00 -1.0000e+00
       50  1    1    2    0    0 +8.5540179980e-02 +1.8935017691e-02 +4.3588005285e+01 4.3588093619e+01 4.9935713700e-03 0.0000e+00 0.0000e+00
       11  1    1    2    0    0 +5.4775095438e-03 -1.0433912792e-02 +1.3390336520e-01 1.3442188058e-01 5.1099893000e-04 0.0000e+00 -1.0000e+00
<vert_displacement>
452.43445580556630
</vert_displacement>
</event>
<event>
 4   1200 +8.5212000e+10 1.33762300e-02 7.81665300e-03            nan
       50 -1    0    0    0    0 -1.3152699041e-02 +9.3080231484e-03 +5.0409059005e+00 5.0409341264e+00 4.9935713700e-03 0.0000e+00 0.0000e+00
       11 -1    0    0    0    0 +1.1587087718e-18 -8.2000569136e-19 -4.4408694114e-16 5.1100000000e-04 5.1099893000e-04 0.0000e+00 1.0000e+00
       50  1    1    2    0    0 -1.5070215832e-02 -3.1688730824e-03 +4.8854144351e+00 4.8854412587e+00 4.9935713700e-03 0.0000e+00 0.0000e+00
       11  1    1    2    0    0 +1.9175167905e-03 +1.2476896231e-02 +1.5549146540e-01 1.5600386772e-01 5.1099893000e-04 0.0000e+00 1.0000e+00
<vert_displacement>
345.22292547714386
</vert_displacement>
</event>
<event>
 4   1200 +8.5212000e+10 5.89186000e-03 7.81665300e-03            nan
       50 -1    0    0    0    0 +1.5784276399e-02 +2.0799902784e-03 +4.8012712721e+00 4.8013002649e+00 4.9935713700e-03 0.0000e+00 0.0000e+00
       11 -1    0    0    0    0 -2.5549024051e-18 -3.3667505753e-19 -7.7715184468e-16 5.1100000000e-04 5.1099893000e-04 0.0000e+00 -1.0000e+00
       50  1    1    2    0    0 +1.7679212455e-02 +4.5389575820e-03 +4.7916758944e+00 4.7917132604e+00 4.9935713700e-03 0.0000e+00 0.0000e+00
       11  1    1    2    0    0 -1.8949360560e-03 -2.4589673037e-03 +9.5953776594e-03 1.0098004515e-02 5.1099893000e-04 0.0000e+00 -1.0000e+00
<vert_displacement>
433.82573213000870
</vert_displacement>
</event>
<event>
 4   1200 +8.5212000e+10 1.37466200e-02 7.81665300e-03            nan
       50 -1    0    0    0    0 +6.5482522670e-03 +4.2753012305e-03 +3.3978457058e+00 3.3978583746e+00 4.9935713700e-03 0.0000e+00 0.0000e+00
       11 -1    0    0    0    0 -5.3489783028e-20 -3.4923049064e-20 -2.7755502103e-17 5.1100000000e-04 5.1099893000e-04 0.0000e+00 1.0000e+00
       50  1    1    2    0    0 -5.7493876066e-03 +8.6129942023e-03 +3.2288721177e+00 3.2288925853e+00 4.9935713700e-03 0.0000e+00 0.0000e+00
       11  1    1    2    0    0 +1.2297639874e-02 -4.3376929718e-03 +1.6897358808e-01 1.6947678931e-01 5.1099893000e-04 0.0000e+00 1.0000e+00
<vert_displacement>
292.82549094726329
</vert_displacement>
</event>
<event>
 4   1200 +8.5212000e+10 1.72147600e-02 7.81665300e-03            nan
       50 -1    0    0    0    0 +4.2338267266e-02 +3.2831926362e-02 +1.3461097775e+01 1.3461205322e+01 4.9935713700e-03 0.0000e+00 0.0000e+00
       11 -1    0    0    0    0 -5.0195784330e-19 -3.8925171039e-19 -1.5959329571e-16 5.1100000000e-04 5.1099893000e-04 0.0000e+00 1.0000e+00
       50  1    1    2    0    0 +5.3285542477e-02 +2.0673993042e-02 +1.3190043557e+01 1.3190168336e+01 4.9935713700e-03 0.0000e+00 0.0000e+00
       11  1    1    2    0    0 -1.0947275211e-02 +1.2157933320e-02 +2.7105421825e-01 2.7154798568e-01 5.1099893000e-04 0.0000e+00 1.0000e+00
<vert_displacement>
139.59151802166971
</vert_displacement>
</event>
<event>
 4   1200 +8.5212000e+10 2.65587500e-02 7.81665300e-03            nan
       50 -1    0    0    0    0 -5.3514038371e-02 +4.2752330271e-02 +2.0546234307e+01 2.0546349083e+01 4.9935713700e-03 0.0000e+00 0.0000e+00
       11 -1    0    0    0    0 +3.0000701594e-18 -2.3967540891e-18 -1.1518499876e-15 5.1100000000e-04 5.1099893000e-04 0.0000e+00 -1.0000e+00
       50  1    1    2    0    0 -3.1591713638e-02 +5.7910858138e-02 +1.9857328257e+01 1.9857438459e+01 4.9935713700e-03 0.0000e+00 0.0000e+00
       11  1    1    2    0    0 -2.1922324733e-02 -1.5158527867e-02 +6.8890604983e-01 6.8942162419e-01 5.1099893000e-04 0.0000e+00 -1.0000e+00
<vert_displacement>
107.85524874102904
</vert_displacement>
</event>
<event>
 4   1200 +8.5212000e+10 5.48027400e-03 7.81665300e-03            nan
       50 -1    0    0    0    0 -1.1206115913e-02 -1.2818629339e-02 +1.2403512015e+01 1.2403524706e+01 4.9935713700e-03 0.0000e+00 0.0000e+00
       11 -1    0    0    0    0 +8.5885696873e-19 +9.8244291087e-19 -9.5062756920e-16 5.1100000000e-04 5.1099893000e-04 0.0000e+00 1.0000e+00
       50  1    1    2    0    0 -1.2373555532e-02 -1.0883657835e-02 +1.2398522826e+01 1.2398534783e+01 4.9935713700e-03 0.0000e+00 0.0000e+00
       11  1    1    2    0    0 +1.1674396191e-03 -1.9349715035e-03 +4.9891885019e-03 5.5009228133e-03 5.1099893000e-04 0.0000e+00 1.0000e+00
<vert_displacement>
492.67448708588262
</vert_displacement>
</event>
<event>
 4   1200 +8.5212000e+10 1.41734100e-02 7.81665300e-03            nan
       50 -1    0    0    0    0 -3.5282256318e-03 +9.6452131337e-03 +8.1398059542e+00 8.1398139651e+00 4.9935713700e-03 0.0000e+00 0.0000e+00
       11 -1    0    0    0    0 +3.6994512760e-19 -1.0113297663e-18 -8.5348327082e-16 5.1100000000e-04 5.1099893000e-04 0.0000e+00 1.0000e+00
       50  1    1    2    0    0 +9.7099259038e-03 +7.7889403612e-03 +7.9638242906e+00 7.9638355846e+00 4.9935713700e-03 0.0000e+00 0.0000e+00
       11  1    1    2    0    0 -1.3238151536e-02 +1.8562727724e-03 +1.7598166359e-01 1.7648938055e-01 5.1099893000e-04 0.0000e+00 1.0000e+00
<vert_displacement>
296.61607510673224
</vert_displacement>
</event>
<event>
 4   1200 +8.5212000e+10 2.24934700e-02 7.81665300e-03            nan
       50 -1    0    0    0    0 +1.3884445928e-02 +1.7745842813e-03 +9.1476283262e+00 9.1476403983e+00 4.9935713700e-03 0.0000e+00 0.0000e+00
       11 -1    0    0    0    0 -1.7904355935e-19 -2.2883728147e-20 -1.1796105827e-16 5.1100000000e-04 5.1099893000e-04 0.0000e+00 1.0000e+00
       50  1    1    2    0    0 +7.6250942388e-03 -1.9552392744e-02 +8.6497817113e+00 8.6498086122e+00 4.9935713700e-03 0.0000e+00 0.0000e+00
       11  1    1    2    0    0 +6.2593516888e-03 +2.1326977025e-02 +4.9784661488e-01 4.9834278614e-01 5.1099893000e-04 0.0000e+00 1.0000e+00
<vert_displacement>
238.67334054786690
</vert_displacement>
</event>
<event>
 4   1200 +8.5212000e+10 5.48627500e-02 7.81665300e-03            nan
       50 -1    0    0    0    0 -1.1862735681e-01 +4.2431487780e-02 +3.4747960459e+01 3.4748189218e+01 4.9935713700e-03 0.0000e+00 0.0000e+00
       11 -1    0    0    0    0 +5.3062895677e-18 -1.8979918882e-18 -1.5543020180e-15 5.1100000000e-04 5.1099893000e-04 0.0000e+00 1.0000e+00
       50  1    1    2    0    0 -5.9159636555e-02 +6.3697542222e-02 +3.1528893329e+01 3.1529013570e+01 4.9935713700e-03 0.0000e+00 0.0000e+00
       11  1    1    2    0    0 -5.9467720258e-02 -2.1266054443e-02 +3.2190671305e+00 3.2196866473e+00 5.1099893000e-04 0.0000e+00 1.0000e+00
<vert_displacement>
256.74997648438926
</vert_displacement>
</event>
<event>
 4   1200 +8.5212000e+10 5.36375800e-03 7.81665300e-03            nan
       50 -1    0    0    0    0 +1.9718733712e-02 +1.4621689971e-02 +6.6042086827e+00 6.6042561946e+00 4.9935713700e-03 0.0000e+00 0.0000e+00
       11 -1    0    0    0    0 -8.4943340861e-19 -6.2986559547e-19 -2.8449268470e-16 5.1100000000e-04 5.1099893000e-04 0.0000e+00 1.0000e+00
       50  1    1    2    0    0 +1.8890766182e-02 +1.6392998469e-02 +6.6004531665e+00 6.6005024453e+00 4.9935713700e-03 0.0000e+00 0.0000e+00
       11  1    1    2    0    0 +8.2796753044e-04 -1.7713084979e-03 +3.7555162308e-03 4.2647492415e-03 5.1099893000e-04 0.0000e+00 1.0000e+00
<vert_displacement>
235.73679162529592
</vert_displacement>
</event>
<event>
 4   1200 +8.5212000e+10 9.46318000e-03 7.81665300e-03            nan
       50 -1    0    0    0    0 +2.2650839410e-03 +3.6264566864e-03 +2.1695673438e+00 2.1695773037e+00 4.9935713700e-03 0.0000e+00 0.0000e+00
       11 -1    0    0    0    0 +5.4332768259e-20 +8.6988136366e-20 +5.2041603216e-17 5.1100000000e-04 5.1099893000e-04 0.0000e+00 1.0000e+00
       50  1    1    2    0    0 +3.2512967531e-03 +1.1486391344e-02 +2.1043303596e+00 2.1043701448e+00 4.9935713700e-03 0.0000e+00 0.0000e+00
       11  1    1    2    0    0 -9.8621281201e-04 -7.8599346581e-03 +6.5236984137e-02 6.5718158888e-02 5.1099893000e-04 0.0000e+00 1.0000e+00
<vert_displacement>
47.500002240299807
</vert_displacement>
</event>
<event>
 4   1200 +8.5212000e+10 1.13289200e-02 7.81665300e-03            nan
       50 -1    0    0    0    0 +7.3012566169e-02 -3.2973488605e-02 +3.9063316240e+01 3.9063398709e+01 4.9935713700e-03 0.0000e+00 0.0000e+00
       11 -1    0    0    0    0 -5.7324477712e-18 +2.5888530041e-18 -3.0669846557e-15 5.1100000000e-04 5.1099893000e-04 0.0000e+00 1.0000e+00
       50  1    1    2    0    0 +6.9693570853e-02 -4.2563371445e-02 +3.8961866582e+01 3.8961952484e+01 4.9935713700e-03 0.0000e+00 0.0000e+00
       11  1    1    2    0    0 +3.3189953169e-03 +9.5898828397e-03 +1.0144965757e-01 1.0195722497e-01 5.1099893000e-04 0.0000e+00 1.0000e+00
<vert_displacement>
373.32565616104813
</vert_displacement>
</event>
<event>
 4   1200 +8.5212000e+10 7.64891600e-03 7.81665300e-03            nan
       50 -1    0    0    0    0 +1.3869491580e-02 +5.1160747456e-03 +4.4964150901e+01 4.4964153608e+01 4.9935713700e-03 0.0000e+00 0.0000e+00
       11 -1    0    0    0    0 -1.2585245576e-18 -4.6423516454e-19 -4.0800693950e-15 5.1100000000e-04 5.1099893000e-04 0.0000e+00 1.0000e+00
       50  1    1    2    0    0 +1.8654649668e-02 +1.8603695756e-03 +4.4931277865e+01 4.4931282053e+01 4.9935713700e-03 0.0000e+00 0.0000e+00
       11  1    1    2    0    0 -4.7851580880e-03 +3.2557051699e-03 +3.2873036028e-02 3.3382554901e-02 5.1099893000e-04 0.0000e+00 1.0000e+00
<vert_displacement>
466.27592580260989
</vert_displacement>
</event>
<event>
 4   1200 +8.5212000e+10 1.24981000e-02 7.81665300e-03            nan
       50 -1    0    0    0    0 -1.3725244933e-02 +1.7611014956e-02 +2.3519296760e+01 2.3519307888e+01 4.9935713700e-03 0.0000e+00 0.0000e+00
       11 -1    0    0    0    0 -3.3204708750e-19 +4.2605332385e-19 +5.6898904372e-16 5.1100000000e-04 5.1099893000e-04 0.0000e+00 1.0000e+00
       50  1    1    2    0    0 -2.3663645763e-02 +1.1947337830e-02 +2.3390141333e+01 2.3390156888e+01 4.9935713700e-03 0.0000e+00 0.0000e+00
       11  1    1    2    0    0 +9.9384008307e-03 +5.6636771261e-03 +1.2915542657e-01 1.2966200053e-01 5.1099893000e-04 0.0000e+00 1.0000e+00
<vert_displacement>
93.017351819775683
</vert_displacement>
</event>
<event>
 4   1200 +8.5212000e+10 1.94494000e-02 7.81665300e-03            nan
       50 -1    0    0    0    0 -3.1058546705e-02 +2.9339027123e-02 +1.4002836732e+01 1.4002902802e+01 4.9935713700e-03 0.0000e+00 0.0000e+00
       11 -1    0    0    0    0 -7.6644796166e-18 +7.2401447976e-18 +3.4555530794e-15 5.1100000000e-04 5.1099893000e-04 0.0000e+00 1.0000e+00
       50  1    1    2    0    0 -4.0020020493e-02 +4.4667787857e-02 +1.3648030494e+01 1.3648163178e+01 4.9935713700e-03 0.0000e+00 0.0000e+00
       11  1    1    2    0    0 +8.9614737877e-03 -1.5328760735e-02 +3.5480623772e-01 3.5525062472e-01 5.1099893000e-04 0.0000e+00 1.0000e+00
<vert_displacement>
112.14131906772127
</vert_displacement>
</event>
<event>
 4   1200 +8.5212000e+10 1.96093700e-02 7.81665300e-03            nan
       50 -1    0    0    0    0 +2.3881872470e-02 +9.7687980112e-03 +1.2085954442e+01 1.2085983017e+01 4.9935713700e-03 0.0000e+00 0.0000e+00
       11 -1    0    0    0    0 -3.8939916820e-18 -1.5928239398e-18 -1.9706413777e-15 5.1100000000e-04 5.1099893000e-04 0.0000e+00 1.0000e+00
       50  1    1    2    0    0 +1.1757822274e-02 +2.4623756532e-02 +1.1723188570e+01 1.1723221390e+01 4.9935713700e-03 0.0000e+00 0.0000e+00
       11  1    1    2    0    0 +1.2124050196e-02 -1.4854958521e-02 +3.6276587258e-01 3.6327262739e-01 5.1099893000e-04 0.0000e+00 1.0000e+00
<vert_displacement>
485.12640884257053
</vert_displacement>
</event>
<event>
 4   1200 +8.5212000e+10 2.82975000e-02 7.81665300e-03            nan
       50 -1    0    0    0    0 +6.3408012424e-02 +1.8337371773e-02 +2.1973081671e+01 2.1973181379e+01 4.9935713700e-03 0.0000e+00 0.0000e+00
       11 -1    0    0    0    0 +6.0070702733e-18 +1.7372233674e-18 +2.0816587790e-15 5.1100000000e-04 5.1099893000e-04 0.0000e+00 1.0000e+00
       50  1    1    2    0    0 +3.6331767151e-02 +5.0089701930e-03 +2.1185791791e+01 2.1185824124e+01 4.9935713700e-03 0.0000e+00 0.0000e+00
       11  1    1    2    0    0 +2.7076245273e-02 +1.3328401580e-02 +7.8728988017e-01 7.8786825414e-01 5.1099893000e-04 0.0000e+00 1.0000e+00
<vert_displacement>
2.0933080382628955
</vert_displacement>
</event>
<event>
 4   1200 +8.5212000e+10 1.42344200e-02 7.81665300e-03            nan
       50 -1    0    0    0    0 -8.7893788656e-03 -6.2807600554e-03 +3.1681124044e+00 3.1681347578e+00 4.9935713700e-03 0.0000e+00 0.0000e+00
       11 -1    0    0    0    0 -5.0051681639e-19 -3.5766190940e-19 +1.8041019267e-16 5.1100000000e-04 5.1099893000e-04 0.0000e+00 1.0000e+00
       50  1    1    2    0    0 -3.5996384727e-04 -1.6638591053e-02 +2.9833731365e+00 2.9834237345e+00 4.9935713700e-03 0.0000e+00 0.0000e+00
       11  1    1    2    0    0 -8.4294150183e-03 +1.0357830998e-02 +1.8473926792e-01 1.8522202335e-01 5.1099893000e-04 0.0000e+00 1.0000e+00
<vert_displacement>
9.7515227936929865
</vert_displacement>
</event>
<event>
 4   1200 +8.5212000e+10 3.28870500e-02 7.81665300e-03            nan
       50 -1    0    0    0    0 +1.5792590124e-02 -2.4715113745e-02 +1.0666958576e+01 1.0667000068e+01 4.9935713700e-03 0.0000e+00 0.0000e+00
       11 -1    0    0    0    0 +7.0884364742e-19 -1.1093273007e-18 +4.7878186950e-16 5.1100000000e-04 5.1099893000e-04 0.0000e+00 1.0000e+00
       50  1    1    2    0    0 +2.9328276513e-02 -5.0730674395e-02 +9.5064158942e+00 9.5065978056e+00 4.9935713700e-03 0.0000e+00 0.0000e+00
       11  1    1    2    0    0 -1.3535686388e-02 +2.6015560650e-02 +1.1605426820e+00 1.1609132621e+00 5.1099893000e-04 0.0000e+00 1.0000e+00
<vert_displacement>
50.169296219594663
</vert_displacement>
</event>
<event>
 4   1200 +8.5212000e+10 2.97003500e-02 7.81665300e-03            nan
       50 -1    0    0    0    0 +1.4335036238e-02 +2.8332150099e-03 +1.2066778207e+01 1.2066788087e+01 4.9935713700e-03 0.0000e+00 0.0000e+00
       11 -1    0    0    0    0 +1.7475646636e-18 +3.4539336724e-19 +1.4710444290e-15 5.1100000000e-04 5.1099893000e-04 0.0000e+00 1.0000e+00
       50  1    1    2    0    0 -1.5262468512e-02 +9.2375472222e-03 +1.1159728727e+01 1.1159744104e+01 4.9935713700e-03 0.0000e+00 0.0000e+00
       11  1    1    2    0    0 +2.9597504750e-02 -6.4043322123e-03 +9.0704947972e-01 9.0755498321e-01 5.1099893000e-04 0.0000e+00 1.0000e+00
<vert_displacement>
41.809038180093800
</vert_displacement>
</event>
<event>
 4   1200 +8.5212000e+10 1.87261800e-02 7.81665300e-03            nan
       50 -1    0    0    0    0 +6.3356427283e-02 -8.2824310325e-02 +3.4674096696e+01 3.4674253857e+01 4.9935713700e-03 0.0000e+00 0.0000e+00
       11 -1    0    0    0    0 -8.3172095909e-18 +1.0872885005e-17 -4.5518938167e-15 5.1100000000e-04 5.1099893000e-04 0.0000e+00 1.0000e+00
       50  1    1    2    0    0 +6.2531903010e-02 -1.0010235789e-01 +3.4352341423e+01 3.4352544548e+01 4.9935713700e-03 0.0000e+00 0.0000e+00
       11  1    1    2    0    0 +8.2452427309e-04 +1.7278047569e-02 +3.2175527306e-01 3.2222030915e-01 5.1099893000e-04 0.0000e+00 1.0000e+00
<vert_displacement>
339.88182463409964
</vert_displacement>
</event>
<event>
 4   1200 +8.5212000e+10 7.69105700e-03 7.81665300e-03            nan
       50 -1    0    0    0    0 -1.1846856885e-02 +8.7965968489e-03 +6.0068021897e+00 6.0068223888e+00 4.9935713700e-03 0.0000e+00 0.0000e+00
       11 -1    0    0    0    0 +7.3899671567e-19 -5.4872412519e-19 -3.7469914029e-16 5.1100000000e-04 5.1099893000e-04 0.0000e+00 1.0000e+00
       50  1    1    2    0    0 -1.6696948408e-02 +1.1916578456e-02 +5.9731155320e+00 5.9731528431e+00 4.9935713700e-03 0.0000e+00 0.0000e+00
       11  1    1    2    0    0 +4.8500915229e-03 -3.1199816066e-03 +3.3686657732e-02 3.4180545667e-02 5.1099893000e-04 0.0000e+00 1.0000e+00
<vert_displacement>
336.63058519318145
</vert_displacement>
</event>
<event>
 4   1200 +8.5212000e+10 1.07844400e-02 7.81665300e-03            nan
       50 -1    0    0    0    0 -5.1541356854e-02 +2.5209722347e-02 +2.6236373907e+01 2.6236437120e+01 4.9935713700e-03 0.0000e+00 0.0000e+00
       11 -1    0    0    0    0 +2.0447136841e-18 -1.0001029737e-18 -1.0408315967e-15 5.1100000000e-04 5.1099893000e-04 0.0000e+00 1.0000e+00
       50  1    1    2    0    0 -5.9892437754e-02 +2.0804601338e-02 +2.6146651217e+01 2.6146728567e+01 4.9935713700e-03 0.0000e+00 0.0000e+00
       11  1    1    2    0    0 +8.3510809001e-03 +4.4051210093e-03 +8.9722689389e-02 9.0219553060e-02 5.1099893000e-04 0.0000e+00 1.0000e+00
<vert_displacement>
483.67115284330492
</vert_displacement>
</event>
<event>
 4   1200 +8.5212000e+10 1.51594700e-02 7.81665300e-03            nan
       50 -1    0    0    0    0 +1.0591185058e-02 +2.8920673606e-03 +2.2028218304e+01 2.2028221606e+01 4.9935713700e-03 0.0000e+00 0.0000e+00
       11 -1    0    0    0    0 +4.2703684470e-19 +1.1660822784e-19 +8.8817830939e-16 5.1100000000e-04 5.1099893000e-04 0.0000e+00 1.0000e+00
       50  1    1    2    0    0 -3.6974436378e-03 +4.7308347409e-03 +2.1825896146e+01 2.1825897544e+01 4.9935713700e-03 0.0000e+00 0.0000e+00
       11  1    1    2    0    0 +1.4288628696e-02 -1.8387673804e-03 +2.0232215799e-01 2.0283506282e-01 5.1099893000e-04 0.0000e+00 1.0000e+00
<vert_displacement>
88.582482015289031
</vert_displacement>
</event>
<event>
 4   1200 +8.5212000e+10 8.28206800e-03 7.81665300e-03            nan
       50 -1    0    0    0    0 +1.1170831547e-02 +1.4086235790e-02 +2.6342067340e+01 2.6342073948e+01 4.9935713700e-03 0.0000e+00 0.0000e+00
       11 -1    0    0    0    0 -3.5310757900e-19 -4.4526287914e-19 -8.3266707455e-16 5.1100000000e-04 5.1099893000e-04 0.0000e+00 1.0000e+00
       50  1    1    2    0    0 +1.4924511097e-02 +1.9488317923e-02 +2.6299275338e+01 2.6299287267e+01 4.9935713700e-03 0.0000e+00 0.0000e+00
       11  1    1    2    0    0 -3.7536795498e-03 -5.4020821327e-03 +4.2792002685e-02 4.3297681407e-02 5.1099893000e-04 0.0000e+00 1.0000e+00
<vert_displacement>
188.85290550592975
</vert_displacement>
</event>
<event>
 4   1200 +8.5212000e+10 7.69205000e-03 7.81665300e-03            nan
       50 -1    0    0    0    0 -8.1169362707e-02 +8.4834270783e-03 +2.9275123947e+01 2.9275238129e+01 4.9935713700e-03 0.0000e+00 0.0000e+00
       11 -1    0    0    0    0 -3.6554054433e-18 +3.8204520136e-19 +1.3183847188e-15 5.1100000000e-04 5.1099893000e-04 0.0000e+00 1.0000e+00
       50  1    1    2    0    0 -7.5722942389e-02 +1.0834286678e-02 +2.9241604222e+01 2.9241704700e+01 4.9935713700e-03 0.0000e+00 0.0000e+00
       11  1    1    2    0    0 -5.4464203173e-03 -2.3508595997e-03 +3.3519725280e-02 3.4044428882e-02 5.1099893000e-04 0.0000e+00 1.0000e+00
<vert_displacement>
487.52252950848305
</vert_displacement>
</event>
<event>
 4   1200 +8.5212000e+10 7.71925500e-02 7.81665300e-03            nan
       50 -1    0    0    0    0 -1.2143822981e-01 -8.4388663238e-02 +3.8497592957e+01 3.8497877307e+01 4.9935713700e-03 0.0000e+00 0.0000e+00
       11 -1    0    0    0    0 -4.2025232363e-18 -2.9203762167e-18 +1.3322578005e-15 5.1100000000e-04 5.1099893000e-04 0.0000e+00 1.0000e+00
       50  1    1    2    0    0 -4.2978799937e-02 -1.2168193615e-01 +3.1371775748e+01 3.1372041569e+01 4.9935713700e-03 0.0000e+00 0.0000e+00
       11  1    1    2    0    0 -7.8459429875e-02 +3.7293272917e-02 +7.1258172089e+00 7.1263467378e+00 5.1099893000e-04 0.0000e+00 1.0000e+00
<vert_displacement>
235.83279196778452
</vert_displacement>
</event>
<event>
 4   1200 +8.5212000e+10 2.14124200e-02 7.81665300e-03            nan
       50 -1    0    0    0    0 -3.5619931701e-03 +4.8691585510e-03 +2.3396597103e+00 2.3396728173e+00 4.9935713700e-03 0.0000e+00 0.0000e+00
       11 -1    0    0    0    0 -6.8666125980e-20 +9.3864934184e-20 +4.5102660433e-17 5.1100000000e-04 5.1099893000e-04 0.0000e+00 1.0000e+00
       50  1    1    2    0    0 -1.4992166322e-02 +2.0518666007e-02 +1.7801199171e+00 1.7803082980e+00 4.9935713700e-03 0.0000e+00 0.0000e+00
       11  1    1    2    0    0 +1.1430173152e-02 -1.5649507456e-02 +5.5953979316e-01 5.5987551937e-01 5.1099893000e-04 0.0000e+00 1.0000e+00
<vert_displacement>
265.15652472892594
</vert_displacement>
</event>
<event>
 4   1200 +8.5212000e+10 9.46788000e-03 7.81665300e-03            nan
       50 -1    0    0    0    0 +1.1965911444e-02 -2.2887413702e-02 +1.1593102342e+01 1.1593132185e+01 4.9935713700e-03 0.0000e+00 0.0000e+00
       11 -1    0    0    0    0 -1.5756435100e-19 +3.0137616371e-19 -1.5265528708e-16 5.1100000000e-04 5.1099893000e-04 0.0000e+00 1.0000e+00
       50  1    1    2    0    0 +1.9714678116e-02 -2.4669279346e-02 +1.1529425394e+01 1.1529469723e+01 4.9935713700e-03 0.0000e+00 0.0000e+00
       11  1    1    2    0    0 -7.7487666720e-03 +1.7818656435e-03 +6.3676947260e-02 6.4173461511e-02 5.1099893000e-04 0.0000e+00 1.0000e+00
<vert_displacement>
169.70795781944659
</vert_displacement>
</event>
<event>
 4   1200 +8.5212000e+10 1.80305200e-02 7.81665300e-03            nan
       50 -1    0    0    0    0 -3.4555989652e-02 -1.5589382264e-02 +1.4159159799e+01 1.4159211429e+01 4.9935713700e-03 0.0000e+00 0.0000e+00
       11 -1    0    0    0    0 -1.1007479854e-18 -4.9658485531e-19 +4.5102648717e-16 5.1100000000e-04 5.1099893000e-04 0.0000e+00 1.0000e+00
       50  1    1    2    0    0 -3.1933154481e-02 -3.2480770530e-02 +1.3859062807e+01 1.3859138558e+01 4.9935713700e-03 0.0000e+00 0.0000e+00
       11  1    1    2    0    0 -2.6228351707e-03 +1.6891388266e-02 +3.0009699132e-01 3.0058387113e-01 5.1099893000e-04 0.0000e+00 1.0000e+00
<vert_displacement>
471.60085194109740
</vert_displacement>
</event>
<event>
 4   1200 +8.5212000e+10 1.35408900e-02 7.81665300e-03            nan
       50 -1    0    0    0    0 +1.3233914488e-02 -1.6834297009e-02 +1.5574295161e+01 1.5574310682e+01 4.9935713700e-03 0.0000e+00 0.0000e+00
       11 -1    0    0    0    0 -3.4197767333e-19 +4.3501518227e-19 -4.0245546603e-16 5.1100000000e-04 5.1099893000e-04 0.0000e+00 1.0000e+00
       50  1    1    2    0    0 +2.3161739844e-02 -9.1020714258e-03 +1.5417703302e+01 1.5417724195e+01 4.9935713700e-03 0.0000e+00 0.0000e+00
       11  1    1    2    0    0 -9.9278253557e-03 -7.7322255833e-03 +1.5659185900e-01 1.5709748710e-01 5.1099893000e-04 0.0000e+00 1.0000e+00
<vert_displacement>
222.69024141763097
</vert_displacement>
</event>
<event>
 4   1200 +8.5212000e+10 2.29472100e-02 7.81665300e-03            nan
       50 -1    0    0    0    0 +1.3810657885e-02 -6.8845055746e-03 +5.6810971911e+00 5.6811203438e+00 4.9935713700e-03 0.0000e+00 0.0000e+00
       11 -1    0    0    0    0 +4.3857527156e-19 -2.1862636284e-19 +1.8041057595e-16 5.1100000000e-04 5.1099893000e-04 0.0000e+00 1.0000e+00
       50  1    1    2    0    0 +1.8936021566e-02 +1.5223352990e-02 +5.1381036232e+00 5.1381634950e+00 4.9935713700e-03 0.0000e+00 0.0000e+00
       11  1    1    2    0    0 -5.1253636809e-03 -2.2107858565e-02 +5.4299356792e-01 5.4346784881e-01 5.1099893000e-04 0.0000e+00 1.0000e+00
<vert_displacement>
417.80283206019590
</vert_displacement>
</event>
<event>
 4   1200 +8.5212000e+10 7.84999500e-03 7.81665300e-03            nan
       50 -1    0    0    0    0 +6.1710093078e-02 +2.0232723227e-02 +1.8140889816e+01 1.8141006746e+01 4.9935713700e-03 0.0000e+00 0.0000e+00
       11 -1    0    0    0    0 -2.3603971427e-18 -7.7389710033e-19 -6.9388494414e-16 5.1100000000e-04 5.1099893000e-04 0.0000e+00 1.0000e+00
       50  1    1    2    0    0 +6.5298699737e-02 +1.5405606696e-02 +1.8104913401e+01 1.8105038399e+01 4.9935713700e-03 0.0000e+00 0.0000e+00
       11  1    1    2    0    0 -3.5886066594e-03 +4.8271165316e-03 +3.5976415390e-02 3.6479346704e-02 5.1099893000e-04 0.0000e+00 1.0000e+00
<vert_displacement>
25.836996514996883
</vert_displacement>
</event>
<event>
 4   1200 +8.5212000e+10 3.20173100e-02 7.81665300e-03            nan
       50 -1    0    0    0    0 -1.6869752211e-02 +2.2676005462e-02 +1.0606964371e+01 1.0607003201e+01 4.9935713700e-03 0.0000e+00 0.0000e+00
       11 -1    0    0    0    0 -4.7454210731e-19 +6.3787062683e-19 +2.9837137867e-16 5.1100000000e-04 5.1099893000e-04 0.0000e+00 1.0000e+00
       50  1    1    2    0    0 -4.5093345839e-02 +1.0212786036e-02 +9.5157387699e+00 9.5158524045e+00 4.9935713700e-03 0.0000e+00 0.0000e+00
       11  1    1    2    0    0 +2.8223593629e-02 +1.2463219425e-02 +1.0912256015e+00 1.0916617964e+00 5.1099893000e-04 0.0000e+00 1.0000e+00
<vert_displacement>
320.12203727541231
</vert_displacement>
</event>
<event>
 4   1200 +8.5212000e+10 1.62578700e-02 7.81665300e-03            nan
       50 -1    0    0    0    0 -2.2087901912e-02 -5.5740488667e-03 +1.3182719195e+01 1.3182739824e+01 4.9935713700e-03 0.0000e+00 0.0000e+00
       11 -1    0    0    0    0 -1.3137644503e-18 -3.3153838126e-19 +7.8409384043e-16 5.1100000000e-04 5.1099893000e-04 0.0000e+00 1.0000e+00
       50  1    1    2    0    0 -3.6730085126e-02 -9.0957365607e-03 +1.2944129234e+01 1.2944185505e+01 4.9935713700e-03 0.0000e+00 0.0000e+00
       11  1    1    2    0    0 +1.4642183214e-02 +3.5216876940e-03 +2.3858996135e-01 2.3906531867e-01 5.1099893000e-04 0.0000e+00 1.0000e+00
<vert_displacement>
295.19786802443861
</vert_displacement>
</event>
<event>
 4   1200 +8.5212000e+10 3.36034600e-02 7.81665300e-03            nan
       50 -1    0    0    0    0 +6.4435089870e-02 +4.8409864387e-02 +2.8415626086e+01 2.8415740817e+01 4.9935713700e-03 0.0000e+00 0.0000e+00
       11 -1    0    0    0    0 -2.7692768640e-18 -2.0805483116e-18 -1.2212404151e-15 5.1100000000e-04 5.1099893000e-04 0.0000e+00 1.0000e+00
       50  1    1    2    0    0 +2.8942679572e-02 +4.2119413796e-02 +2.7290622429e+01 2.7290670736e+01 4.9935713700e-03 0.0000e+00 0.0000e+00
       11  1    1    2    0    0 +3.5492410298e-02 +6.2904505907e-03 +1.1250036572e+00 1.1255810814e+00 5.1099893000e-04 0.0000e+00 1.0000e+00
<vert_displacement>
175.85990530958094
</vert_displacement>
</event>
<event>
 4   1200 +8.5212000e+10 1.45654400e-02 7.81665300e-03            nan
       50 -1    0    0    0    0 -2.4441333821e-02 +4.5313345213e-02 +1.9492379778e+01 1.9492448410e+01 4.9935713700e-03 0.0000e+00 0.0000e+00
       11 -1    0    0    0    0 +1.7053159025e-18 -3.1615937474e-18 -1.3600184612e-15 5.1100000000e-04 5.1099893000e-04 0.0000e+00 1.0000e+00
       50  1    1    2    0    0 -1.1477975173e-02 +3.9870875754e-02 +1.9307460188e+01 1.9307505413e+01 4.9935713700e-03 0.0000e+00 0.0000e+00
       11  1    1    2    0    0 -1.2963358649e-02 +5.4424694586e-03 +1.8491959030e-01 1.8545399736e-01 5.1099893000e-04 0.0000e+00 1.0000e+00
<vert_displacement>
396.15134497527066
</vert_displacement>
</event>
<event>
 4   1200 +8.5212000e+10 8.56741900e-03 7.81665300e-03            nan
       50 -1    0    0    0    0 +5.9861885708e-03 -7.1239743675e-03 +4.6282069009e+00 4.6282189489e+00 4.9935713700e-03 0.0000e+00 0.0000e+00
       11 -1    0    0    0    0 +1.0410821169e-18 -1.2389590184e-18 +8.0491006604e-16 5.1100000000e-04 5.1099893000e-04 0.0000e+00 1.0000e+00
       50  1    1    2    0    0 -6.5852137319e-04 -9.3157406289e-03 +4.5802862625e+00 4.5802985054e+00 4.9935713700e-03 0.0000e+00 0.0000e+00
       11  1    1    2    0    0 +6.6447099440e-03 +2.1917662614e-03 +4.7920638378e-02 4.8431443423e-02 5.1099893000e-04 0.0000e+00 1.0000e+00
<vert_displacement>
278.31831200986204
</vert_displacement>
</event>
<event>
 4   1200 +8.5212000e+10 1.09972200e-02 7.81665300e-03            nan
       50 -1    0    0    0    0 -1.5556862646e-02 -1.0687872457e-02 +1.4768060111e+01 1.4768073017e+01 4.9935713700e-03 0.0000e+00 0.0000e+00
       11 -1    0    0    0    0 -1.8639258815e-18 -1.2805539615e-18 +1.7694165004e-15 5.1100000000e-04 5.1099893000e-04 0.0000e+00 1.0000e+00
       50  1    1    2    0    0 -1.1774582018e-02 -1.5397554731e-03 +1.4673524614e+01 1.4673530269e+01 4.9935713700e-03 0.0000e+00 0.0000e+00
       11  1    1    2    0    0 -3.7822806285e-03 -9.1481169835e-03 +9.4535496761e-02 9.5053747737e-02 5.1099893000e-04 0.0000e+00 1.0000e+00
<vert_displacement>
146.49374826550255
</vert_displacement>
</event>
<event>
 4   1200 +8.5212000e+10 1.32405300e-02 7.81665300e-03            nan
       50 -1    0    0    0    0 -1.1897644842e-02 +5.5605486743e-03 +6.1096809579e+00 6.1096971133e+00 4.9935713700e-03 0.0000e+00 0.0000e+00
       11 -1    0    0    0    0 -3.7834651973e-19 +1.7682610859e-19 +1.9428858046e-16 5.1100000000e-04 5.1099893000e-04 0.0000e+00 1.0000e+00
       50  1    1    2    0    0 -3.9455324812e-03 +1.5000622435e-02 +5.9587949938e+00 5.9588172736e+00 4.9935713700e-03 0.0000e+00 0.0000e+00
       11  1    1    2    0    0 -7.9521123606e-03 -9.4400737604e-03 +1.5088596408e-01 1.5139083975e-01 5.1099893000e-04 0.0000e+00 1.0000e+00
<vert_displacement>
423.25812012668592
</vert_displacement>
</event>
<event>
 4   1200 +8.5212000e+10 1.30531600e-02 7.81665300e-03            nan
       50 -1    0    0    0    0 -6.6851010022e-02 -5.9616155466e-02 +2.9716058659e+01 2.9716194075e+01 4.9935713700e-03 0.0000e+00 0.0000e+00
       11 -1    0    0    0    0 -3.0595750577e-18 -2.7284569409e-18 +1.3600170268e-15 5.1100000000e-04 5.1099893000e-04 0.0000e+00 1.0000e+00
       50  1    1    2    0    0 -5.9225170394e-02 -4.9732488408e-02 +2.9573085463e+01 2.9573187005e+01 4.9935713700e-03 0.0000e+00 0.0000e+00
       11  1    1    2    0    0 -7.6258396278e-03 -9.8836670581e-03 +1.4297319591e-01 1.4351806915e-01 5.1099893000e-04 0.0000e+00 1.0000e+00
<vert_displacement>
63.442652546042254
</vert_displacement>
</event>
<event>
 4   1200 +8.5212000e+10 7.18608600e-03 7.81665300e-03            nan
       50 -1    0    0    0    0 +4.3853985936e-03 -2.3791150347e-03 +1.6801672857e+00 1.6801821138e+00 4.9935713700e-03 0.0000e+00 0.0000e+00
       11 -1    0    0    0    0 +2.7166653286e-20 -1.4738134264e-20 +1.0408294968e-17 5.1100000000e-04 5.1099893000e-04 0.0000e+00 1.0000e+00
       50  1    1    2    0    0 +2.1072892679e-03 +2.3302464277e-03 +1.6536164926e+00 1.6536270169e+00 4.9935713700e-03 0.0000e+00 0.0000e+00
       11  1    1    2    0    0 +2.2781093257e-03 -4.7093614623e-03 +2.6550793042e-02 2.7066096848e-02 5.1099893000e-04 0.0000e+00 1.0000e+00
<vert_displacement>
387.22211967721324
</vert_displacement>
</event>
<event>
 4   1200 +8.5212000e+10 1.49649000e-02 7.81665300e-03            nan
       50 -1    0    0    0    0 +8.1983567848e-03 -2.6322573898e-04 +7.0131425047e+00 7.0131490794e+00 4.9935713700e-03 0.0000e+00 0.0000e+00
       11 -1    0    0    0    0 -1.6223109389e-20 +5.2087754527e-22 -1.3877778316e-17 5.1100000000e-04 5.1099893000e-04 0.0000e+00 1.0000e+00
       50  1    1    2    0    0 +1.1496068182e-02 +1.3402146806e-02 +6.8126448298e+00 6.8126695421e+00 4.9935713700e-03 0.0000e+00 0.0000e+00
       11  1    1    2    0    0 -3.2977113976e-03 -1.3665372545e-02 +2.0049767496e-01 2.0099053732e-01 5.1099893000e-04 0.0000e+00 1.0000e+00
<vert_displacement>
282.44738228185389
</vert_displacement>
</event>
<event>
 4   1200 +8.5212000e+10 1.52909600e-02 7.81665300e-03            nan
       50 -1    0    0    0    0 -4.6863605976e-02 +1.4304316405e-02 +1.5621606417e+01 1.5621684058e+01 4.9935713700e-03 0.0000e+00 0.0000e+00
       11 -1    0    0    0    0 -9.1590577753e-19 +2.7956461663e-19 +3.0530982996e-16 5.1100000000e-04 5.1099893000e-04 0.0000e+00 1.0000e+00
       50  1    1    2    0    0 -4.5278497094e-02 +2.8535078111e-02 +1.5414458248e+01 1.5414551969e+01 4.9935713700e-03 0.0000e+00 0.0000e+00
       11  1    1    2    0    0 -1.5851088822e-03 -1.4230761706e-02 +2.0714816959e-01 2.0764308905e-01 5.1099893000e-04 0.0000e+00 1.0000e+00
<vert_displacement>
101.07185489558100
</vert_displacement>
</event>
<event>
 4   1200 +8.5212000e+10 1.15730800e-02 7.81665300e-03            nan
       50 -1    0    0    0    0 +4.9737560744e-03 -9.7882413811e-03 +4.3861095206e+00 4.3861261052e+00 4.9935713700e-03 0.0000e+00 0.0000e+00
       11 -1    0    0    0    0 -2.7539873536e-19 +5.4197858869e-19 -2.4286052574e-16 5.1100000000e-04 5.1099893000e-04 0.0000e+00 1.0000e+00
       50  1    1    2    0    0 +1.5121905065e-02 -1.1409985798e-02 +4.2766833712e+00 4.2767282416e+00 4.9935713700e-03 0.0000e+00 0.0000e+00
       11  1    1    2    0    0 -1.0148148991e-02 +1.6217444173e-03 +1.0942614948e-01 1.0990886358e-01 5.1099893000e-04 0.0000e+00 1.0000e+00
<vert_displacement>
258.30415353218285
</vert_displacement>
</event>
<event>
 4   1200 +8.5212000e+10 1.13639300e-02 7.81665300e-03            nan
       50 -1    0    0    0    0 -1.1297533783e-02 -1.6904086620e-02 +1.1693180623e+01 1.1693199365e+01 4.9935713700e-03 0.0000e+00 0.0000e+00
       11 -1    0    0    0    0 +6.5029784583e-19 +9.7301688366e-19 -6.7307169122e-16 5.1100000000e-04 5.1099893000e-04 0.0000e+00 1.0000e+00
       50  1    1    2    0    0 -4.8197119778e-03 -2.4725241814e-02 +1.1590303957e+01 1.1590332407e+01 4.9935713700e-03 0.0000e+00 0.0000e+00
       11  1    1    2    0    0 -6.4778218054e-03 +7.8211551938e-03 +1.0287666641e-01 1.0337795827e-01 5.1099893000e-04 0.0000e+00 1.0000e+00
<vert_displacement>
303.95407728809391
</vert_displacement>
</event>
<event>
 4   1200 +8.5212000e+10 1.94447700e-02 7.81665300e-03            nan
       50 -1    0    0    0    0 -4.7138553549e-04 -4.8950526414e-03 +3.1458390167e+00 3.1458468238e+00 4.9935713700e-03 0.0000e+00 0.0000e+00
       11 -1    0    0    0    0 +3.7431046970e-20 +3.8869870105e-19 -2.4979987532e-16 5.1100000000e-04 5.1099893000e-04 0.0000e+00 1.0000e+00
       50  1    1    2    0    0 -6.9511003207e-03 +1.3339104595e-02 +2.7500686049e+00 2.7501142735e+00 4.9935713700e-03 0.0000e+00 0.0000e+00
       11  1    1    2    0    0 +6.4797147852e-03 -1.8234157236e-02 +3.9577041177e-01 3.9624355029e-01 5.1099893000e-04 0.0000e+00 1.0000e+00
<vert_displacement>
12.935712906625643
</vert_displacement>
</event>
<event>
 4   1200 +8.5212000e+10 6.38839600e-03 7.81665300e-03            nan
       50 -1    0    0    0    0 -4.8530244989e-03 -4.3493179106e-03 +2.5650052018e+00 2.5650183410e+00 4.9935713700e-03 0.0000e+00 0.0000e+00
       11 -1    0    0    0    0 -4.3980269477e-19 -3.9415456030e-19 +2.3245219555e-16 5.1100000000e-04 5.1099893000e-04 0.0000e+00 1.0000e+00
       50  1    1    2    0    0 -5.3348527296e-03 -8.2742976268e-03 +2.5493641766e+00 2.5493880767e+00 4.9935713700e-03 0.0000e+00 0.0000e+00
       11  1    1    2    0    0 +4.8182823075e-04 +3.9249797162e-03 +1.5641025155e-02 1.6141264263e-02 5.1099893000e-04 0.0000e+00 1.0000e+00
<vert_displacement>
351.39325422161414
</vert_displacement>
</event>
<event>
 4   1200 +8.5212000e+10 1.14155500e-02 7.81665300e-03            nan
       50 -1    0    0    0    0 -5.4170694403e-03 -2.0065112330e-03 +4.2181688329e+00 4.2181757443e+00 4.9935713700e-03 0.0000e+00 0.0000e+00
       11 -1    0    0    0    0 +5.1684257048e-19 +1.9144122754e-19 -4.0245546902e-16 5.1100000000e-04 5.1099893000e-04 0.0000e+00 1.0000e+00
       50  1    1    2    0    0 -1.3584171195e-02 +4.0803483809e-03 +4.1123695756e+00 4.1123970675e+00 4.9935713700e-03 0.0000e+00 0.0000e+00
       11  1    1    2    0    0 +8.1671017548e-03 -6.0868596139e-03 +1.0579925730e-01 1.0628967671e-01 5.1099893000e-04 0.0000e+00 1.0000e+00
<vert_displacement>
61.105155876725853
</vert_displacement>
</event>
<event>
 4   1200 +8.5212000e+10 1.59568400e-02 7.81665300e-03            nan
       50 -1    0    0    0    0 -1.3922053263e-02 +1.2690772193e-03 +4.3183542366e+00 4.3183797521e+00 4.9935713700e-03 0.0000e+00 0.0000e+00
       11 -1    0    0    0    0 +2.9081469636e-19 -2.6509473797e-20 -9.0205148074e-17 5.1100000000e-04 5.1099893000e-04 0.0000e+00 1.0000e+00
       50  1    1    2    0    0 -1.4662451037e-02 +1.6279344876e-02 +4.0803936288e+00 4.0804555023e+00 4.9935713700e-03 0.0000e+00 0.0000e+00
       11  1    1    2    0    0 +7.4039777405e-04 -1.5010267656e-02 +2.3796060787e-01 2.3843524979e-01 5.1099893000e-04 0.0000e+00 1.0000e+00
<vert_displacement>
204.21674568612653
</vert_displacement>
</event>
<event>
 4   1200 +8.5212000e+10 6.45444000e-03 7.81665300e-03            nan
       50 -1    0    0    0    0 -2.3049953710e-03 -1.3974190703e-02 +5.9007907261e+00 5.9008098360e+00 4.9935713700e-03 0.0000e+00 0.0000e+00
       11 -1    0    0    0    0 +1.4636680778e-19 +8.8735869505e-19 -3.7469919151e-16 5.1100000000e-04 5.1099893000e-04 0.0000e+00 1.0000e+00
       50  1    1    2    0    0 +9.6682459279e-04 -1.1473397153e-02 +5.8843865952e+00 5.8843999789e+00 4.9935713700e-03 0.0000e+00 0.0000e+00
       11  1    1    2    0    0 -3.2718199638e-03 -2.5007935498e-03 +1.6404130873e-02 1.6920857066e-02 5.1099893000e-04 0.0000e+00 1.0000e+00
<vert_displacement>
21.607738760786493
</vert_displacement>
</event>
<event>
 4   1200 +8.5212000e+10 9.19730800e-03 7.81665300e-03            nan
       50 -1    0    0    0    0 +6.6161652752e-02 -1.7736979784e-02 +2.2596898692e+01 2.2597003062e+01 4.9935713700e-03 0.0000e+00 0.0000e+00
       11 -1    0    0    0    0 +7.3138872267e-19 -1.9607471169e-19 +2.4979903287e-16 5.1100000000e-04 5.1099893000e-04 0.0000e+00 1.0000e+00
       50  1    1    2    0    0 +5.8387145681e-02 -1.9049824839e-02 +2.2538396537e+01 2.2538480769e+01 4.9935713700e-03 0.0000e+00 0.0000e+00
       11  1    1    2    0    0 +7.7745070706e-03 +1.3128450553e-03 +5.8502154661e-02 5.9033293507e-02 5.1099893000e-04 0.0000e+00 1.0000e+00
<vert_displacement>
485.99248889067036
</vert_displacement>
</event>
<event>
 4   1200 +8.5212000e+10 9.61584300e-03 7.81665300e-03            nan
       50 -1    0    0    0    0 -5.9231788354e-02 +1.6626199951e-02 +3.1213484933e+01 3.1213545961e+01 4.9935713700e-03 0.0000e+00 0.0000e+00
       11 -1    0    0    0    0 +1.3957507005e-18 -3.9178337973e-19 -7.3552132516e-16 5.1100000000e-04 5.1099893000e-04 0.0000e+00 1.0000e+00
       50  1    1    2    0    0 -6.0073467691e-02 +2.4751377002e-02 +3.1147262182e+01 3.1147330348e+01 4.9935713700e-03 0.0000e+00 0.0000e+00
       11  1    1    2    0    0 +8.4167933729e-04 -8.1251770512e-03 +6.6222751442e-02 6.6726612792e-02 5.1099893000e-04 0.0000e+00 1.0000e+00
<vert_displacement>
259.44578377548083
</vert_displacement>
</event>
<event>
 4   1200 +8.5212000e+10 1.33441000e-02 7.81665300e-03            nan
       50 -1    0    0    0    0 +5.1165312092e-02 +2.0921151562e-02 +1.5461525453e+01 1.5461625072e+01 4.9935713700e-03 0.0000e+00 0.0000e+00
       11 -1    0    0    0    0 -2.7554466419e-19 -1.1266835764e-19 -8.3266194706e-17 5.1100000000e-04 5.1099893000e-04 0.0000e+00 1.0000e+00
       50  1    1    2    0    0 +6.2953495394e-02 +1.9263857054e-02 +1.5310166576e+01 1.5310308938e+01 4.9935713700e-03 0.0000e+00 0.0000e+00
       11  1    1    2    0    0 -1.1788183302e-02 +1.6572945076e-03 +1.5135887681e-01 1.5182713393e-01 5.1099893000e-04 0.0000e+00 1.0000e+00
<vert_displacement>
126.09744192066567
</vert_displacement>
</event>
<event>
 4   1200 +8.5212000e+10 5.29111200e-03 7.81665300e-03            nan
       50 -1    0    0    0    0 +5.4712393423e-02 -5.2549552614e-02 +2.0433812872e+01 2.0433954300e+01 4.9935713700e-03 0.0000e+00 0.0000e+00
       11 -1    0    0    0    0 +1.8579052246e-19 -1.7844601971e-19 +6.9388460855e-17 5.1100000000e-04 5.1099893000e-04 0.0000e+00 1.0000e+00
       50  1    1    2    0    0 +5.5505068900e-02 -5.4097152707e-02 +2.0430811998e+01 2.0430959623e+01 4.9935713700e-03 0.0000e+00 0.0000e+00
       11  1    1    2    0    0 -7.9267547679e-04 +1.5476000930e-03 +3.0008748714e-03 3.5056768762e-03 5.1099893000e-04 0.0000e+00 1.0000e+00
<vert_displacement>
482.81024822177051
</vert_displacement>
</event>
<event>
 4   1200 +8.5212000e+10 6.02388200e-03 7.81665300e-03            nan
       50 -1    0    0    0    0 +1.3927204037e-02 +9.5207264208e-04 +7.8829470441e+00 7.8829609861e+00 4.9935713700e-03 0.0000e+00 0.0000e+00
       11 -1    0    0    0    0 +1.2259278049e-19 +8.3805214681e-21 +6.9388830238e-17 5.1100000000e-04 5.1099893000e-04 0.0000e+00 1.0000e+00
       50  1    1    2    0    0 +1.2875983530e-02 +4.1581065666e-03 +7.8718249820e+00 7.8718381947e+00 4.9935713700e-03 0.0000e+00 0.0000e+00
       11  1    1    2    0    0 +1.0512205065e-03 -3.2060339245e-03 +1.1122062126e-02 1.1633791468e-02 5.1099893000e-04 0.0000e+00 1.0000e+00
<vert_displacement>
149.46233819976675
</vert_displacement>
</event>
<event>
 4   1200 +8.5212000e+10 9.86751800e-03 7.81665300e-03            nan
       50 -1    0    0    0    0 +3.3930713036e-04 -1.1695657729e-02 +5.8107897298e+00 5.8108036555e+00 4.9935713700e-03 0.0000e+00 0.0000e+00
       11 -1    0    0    0    0 +4.4569717135e-21 -1.5362841215e-19 +7.6327678205e-17 5.1100000000e-04 5.1099893000e-04 0.0000e+00 -1.0000e+00
       50  1    1    2    0    0 -3.9955723226e-03 -4.2247408509e-03 +5.7390355569e+00 5.7390406752e+00 4.9935713700e-03 0.0000e+00 0.0000e+00
       11  1    1    2    0    0 +4.3348794529e-03 -7.4709168776e-03 +7.1754172907e-02 7.2273980300e-02 5.1099893000e-04 0.0000e+00 -1.0000e+00
<vert_displacement>
181.18380978313533
</vert_displacement>
</event>
<event>
 4   1200 +8.5212000e+10 2.22873200e-02 7.81665300e-03            nan
       50 -1    0    0    0    0 -2.0643636927e-02 +3.0649625494e-02 +1.9982585591e+01 1.9982620384e+01 4.9935713700e-03 0.0000e+00 0.0000e+00
       11 -1    0    0    0    0 -1.3333279378e-18 +1.9795931356e-18 +1.2906320592e-15 5.1100000000e-04 5.1099893000e-04 0.0000e+00 1.0000e+00
       50  1    1    2    0    0 -3.1409147720e-02 +1.1346530183e-02 +1.9509756142e+01 1.9509785364e+01 4.9935713700e-03 0.0000e+00 0.0000e+00
       11  1    1    2    0    0 +1.0765510793e-02 +1.9303095311e-02 +4.7282944888e-01 4.7334601990e-01 5.1099893000e-04 0.0000e+00 1.0000e+00
<vert_displacement>
58.021037399237336
</vert_displacement>
</event>
<event>
 4   1200 +8.5212000e+10 1.21046800e-02 7.81665300e-03            nan
       50 -1    0    0    0    0 -1.1137080439e-02 +6.1512588458e-03 +1.0185307529e+01 1.0185316700e+01 4.9935713700e-03 0.0000e+00 0.0000e+00
       11 -1    0    0    0    0 -2.6555541567e-19 +1.4667220091e-19 +2.4286109716e-16 5.1100000000e-04 5.1099893000e-04 0.0000e+00 1.0000e+00
       50  1    1    2    0    0 -2.8883690249e-04 +3.4820021148e-03 +1.0064918091e+01 1.0064919936e+01 4.9935713700e-03 0.0000e+00 0.0000e+00
       11  1    1    2    0    0 -1.0848243537e-02 +2.6692567310e-03 +1.2038943832e-01 1.2090776360e-01 5.1099893000e-04 0.0000e+00 1.0000e+00
<vert_displacement>
429.78063973785692
</vert_displacement>
</event>
<event>
 4   1200 +8.5212000e+10 6.98886400e-03 7.81665300e-03            nan
       50 -1    0    0    0    0 +1.1538389581e-02 +2.2787068840e-02 +9.9348530560e+00 9.9348871440e+00 4.9935713700e-03 0.0000e+00 0.0000e+00
       11 -1    0    0    0    0 +3.3041246198e-19 +6.5252880082e-19 +2.8449370985e-16 5.1100000000e-04 5.1099893000e-04 0.0000e+00 1.0000e+00
       50  1    1    2    0    0 +1.5843861387e-02 +2.4999556703e-02 +9.9113924158e+00 9.9114378655e+00 4.9935713700e-03 0.0000e+00 0.0000e+00
       11  1    1    2    0    0 -4.3054718056e-03 -2.2124878630e-03 +2.3460640148e-02 2.3960278506e-02 5.1099893000e-04 0.0000e+00 1.0000e+00
<vert_displacement>
303.83523383095530
</vert_displacement>
</event>
<event>
 4   1200 +8.5212000e+10 2.67680100e-02 7.81665300e-03            nan
       50 -1    0    0    0    0 -1.6341950274e-02 -6.5580063097e-03 +7.4286967993e+00 7.4287193471e+00 4.9935713700e-03 0.0000e+00 0.0000e+00
       11 -1    0    0    0    0 -3.0528838002e-19 -1.2251188437e-19 +1.3877748821e-16 5.1100000000e-04 5.1099893000e-04 0.0000e+00 1.0000e+00
       50  1    1    2    0    0 +9.5133763219e-03 +4.4049331798e-03 +6.6753540869e+00 6.6753641869e+00 4.9935713700e-03 0.0000e+00 0.0000e+00
       11  1    1    2    0    0 -2.5855326596e-02 -1.0962939489e-02 +7.5334271240e-01 7.5386616014e-01 5.1099893000e-04 0.0000e+00 1.0000e+00
<vert_displacement>
458.80699900389442
</vert_displacement>
</event>
<event>
 4   1200 +8.5212000e+10 1.06560000e-02 7.81665300e-03            nan
       50 -1    0    0    0    0 -4.1654777685e-02 -3.6887002892e-03 +2.4941416875e+01 2.4941452432e+01 4.9935713700e-03 0.0000e+00 0.0000e+00
       11 -1    0    0    0    0 -1.8541860914e-18 -1.6419573340e-19 +1.1102214641e-15 5.1100000000e-04 5.1099893000e-04 0.0000e+00 1.0000e+00
       50  1    1    2    0    0 -5.0667286931e-02 -1.4967434035e-03 +2.4854389464e+01 2.4854441655e+01 4.9935713700e-03 0.0000e+00 0.0000e+00
       11  1    1    2    0    0 +9.0125092455e-03 -2.1919568857e-03 +8.7027410741e-02 8.7521776365e-02 5.1099893000e-04 0.0000e+00 1.0000e+00
<vert_displacement>
477.60264650092586
</vert_displacement>
</event>
<event>
 4   1200 +8.5212000e+10 2.97543000e-02 7.81665300e-03            nan
       50 -1    0    0    0    0 -2.4931085670e-02 +1.4535295277e-02 +1.0444995970e+01 1.0445037031e+01 4.9935713700e-03 0.0000e+00 0.0000e+00
       11 -1    0    0    0    0 -2.2359149116e-18 +1.3035807539e-18 +9.3674710156e-16 5.1100000000e-04 5.1099893000e-04 0.0000e+00 1.0000e+00
       50  1    1    2    0    0 -1.2944028012e-02 -1.4403288195e-02 +9.5212656913e+00 9.5212866936e+00 4.9935713700e-03 0.0000e+00 0.0000e+00
       11  1    1    2    0    0 -1.1987057659e-02 +2.8938583472e-02 +9.2373027856e-01 9.2426133740e-01 5.1099893000e-04 0.0000e+00 1.0000e+00
<vert_displacement>
437.90248285818501
</vert_displacement>
</event>
<event>
 4   1200 +8.5212000e+10 1.84470500e-02 7.81665300e-03            nan
       50 -1    0    0    0    0 -6.3629095818e-04 -9.4245753743e-03 +1.5318764256e+01 1.5318767983e+01 4.9935713700e-03 0.0000e+00 0.0000e+00
       11 -1    0    0    0    0 -3.2280496534e-20 -4.7813027797e-19 +7.7715596949e-16 5.1100000000e-04 5.1099893000e-04 0.0000e+00 1.0000e+00
       50  1    1    2    0    0 -1.1730568210e-02 +4.6251055767e-03 +1.5003702240e+01 1.5003708369e+01 4.9935713700e-03 0.0000e+00 0.0000e+00
       11  1    1    2    0    0 +1.1094277252e-02 -1.4049680951e-02 +3.1506201675e-01 3.1557061340e-01 5.1099893000e-04 0.0000e+00 1.0000e+00
<vert_displacement>
378.49320216507459
</vert_displacement>
</event>
<event>
 4   1200 +8.5212000e+10 2.20926900e-02 7.81665300e-03            nan
       50 -1    0    0    0    0 +8.1441978315e-04 +2.5314482314e-03 +1.8420161061e+00 1.8420247942e+00 4.9935713700e-03 0.0000e+00 0.0000e+00
       11 -1    0    0    0    0 -2.3009434720e-20 -7.1519864857e-20 -5.2041650048e-17 5.1100000000e-04 5.1099893000e-04 0.0000e+00 1.0000e+00
       50  1    1    2    0    0 -1.2937616511e-02 -1.5515767382e-02 +9.8042692981e-01 9.8064775603e-01 4.9935713700e-03 0.0000e+00 0.0000e+00
       11  1    1    2    0    0 +1.3752036294e-02 +1.8047215614e-02 +8.6158917631e-01 8.6188803817e-01 5.1099893000e-04 0.0000e+00 1.0000e+00
<vert_displacement>
461.44587203451664
</vert_displacement>
</event>
<event>
 4   1200 +8.5212000e+10 1.11601900e-02 7.81665300e-03            nan
       50 -1    0    0    0    0 -2.2700289853e-04 +8.9349449074e-03 +8.5200731646e+00 8.5200793160e+00 4.9935713700e-03 0.0000e+00 0.0000e+00
       11 -1    0    0    0    0 -2.1075745126e-20 +8.2955161722e-19 +7.9103346979e-16 5.1100000000e-04 5.1099893000e-04 0.0000e+00 1.0000e+00
       50  1    1    2    0    0 +9.4551326851e-03 +1.1264869666e-02 +8.4214505675e+00 8.4214648900e+00 4.9935713700e-03 0.0000e+00 0.0000e+00
       11  1    1    2    0    0 -9.6821355836e-03 -2.3299247584e-03 +9.8622597103e-02 9.9125425992e-02 5.1099893000e-04 0.0000e+00 1.0000e+00
<vert_displacement>
104.99686564603699
</vert_displacement>
</event>
<event>
 4   1200 +8.5212000e+10 1.31221000e-02 7.81665300e-03            nan
       50 -1    0    0    0    0 -1.2046945306e-01 +7.4265356405e-02 +5.0430923071e+01 5.0431121889e+01 4.9935713700e-03 0.0000e+00 0.0000e+00
       11 -1    0    0    0    0 +5.8014506556e-18 -3.5763987439e-18 -2.4286033038e-15 5.1100000000e-04 5.1099893000e-04 0.0000e+00 1.0000e+00
       50  1    1    2    0    0 -1.2723680184e-01 +8.3884387315e-02 +5.0286392545e+01 5.0286623727e+01 4.9935713700e-03 0.0000e+00 0.0000e+00
       11  1    1    2    0    0 +6.7673487790e-03 -9.6190309101e-03 +1.4453052606e-01 1.4500916126e-01 5.1099893000e-04 0.0000e+00 1.0000e+00
<vert_displacement>
204.13282423843839
</vert_displacement>
</event>
<event>
 4   1200 +8.5212000e+10 7.76398000e-03 7.81665300e-03            nan
       50 -1    0    0    0    0 -5.1777218772e-03 +9.9649054004e-04 +4.0170020975e+00 4.0170086617e+00 4.9935713700e-03 0.0000e+00 0.0000e+00
       11 -1    0    0    0    0 +4.6508236971e-19 -8.9508512188e-20 -3.6082217217e-16 5.1100000000e-04 5.1099893000e-04 0.0000e+00 1.0000e+00
       50  1    1    2    0    0 -1.0678167346e-02 +3.1307039304e-03 +3.9821023207e+00 3.9821209993e+00 4.9935713700e-03 0.0000e+00 0.0000e+00
       11  1    1    2    0    0 +5.5004454692e-03 -2.1342133904e-03 +3.4899776713e-02 3.5398662428e-02 5.1099893000e-04 0.0000e+00 1.0000e+00
<vert_displacement>
273.96821735283584
</vert_displacement>
</event>
<event>
 4   1200 +8.5212000e+10 5.69671800e-03 7.81665300e-03            nan
       50 -1    0    0    0    0 +1.0654445766e-02 -1.6200621496e-02 +8.3031806965e+00 8.3032048386e+00 4.9935713700e-03 0.0000e+00 0.0000e+00
       11 -1    0    0    0    0 +6.3216985905e-19 -9.6124611569e-19 +4.9266012383e-16 5.1100000000e-04 5.1099893000e-04 0.0000e+00 1.0000e+00
       50  1    1    2    0    0 +8.7156010544e-03 -1.4238379771e-02 +8.2958249617e+00 8.2958432618e+00 4.9935713700e-03 0.0000e+00 0.0000e+00
       11  1    1    2    0    0 +1.9388447119e-03 -1.9622417253e-03 +7.3557347493e-03 7.8725767709e-03 5.1099893000e-04 0.0000e+00 1.0000e+00
<vert_displacement>
5.7960590065252058
</vert_displacement>
</event>
<event>
 4   1200 +8.5212000e+10 6.87266800e-03 7.81665300e-03            nan
       50 -1    0    0    0    0 +7.0039336747e-03 -1.4288935958e-03 +2.0667468045e+00 2.0667651987e+00 4.9935713700e-03 0.0000e+00 0.0000e+00
       11 -1    0    0    0    0 +1.1757430057e-18 -2.3986687040e-19 +3.4694262006e-16 5.1100000000e-04 5.1099893000e-04 0.0000e+00 1.0000e+00
       50  1    1    2    0    0 +1.1169578363e-02 +6.6399927742e-04 +2.0446724778e+00 2.0447091915e+00 4.9935713700e-03 0.0000e+00 0.0000e+00
       11  1    1    2    0    0 -4.1656446879e-03 -2.0928928732e-03 +2.2074326665e-02 2.2567007197e-02 5.1099893000e-04 0.0000e+00 1.0000e+00
<vert_displacement>
360.65719669748790
</vert_displacement>
</event>
<event>
 4   1200 +8.5212000e+10 5.09358400e-02 7.81665300e-03            nan
       50 -1    0    0    0    0 +4.1780501229e-03 -3.0018270913e-03 +1.1136718980e+01 1.1136721288e+01 4.9935713700e-03 0.0000e+00 0.0000e+00
       11 -1    0    0    0    0 +2.6031943058e-21 -1.8703316047e-21 +6.9388931635e-18 5.1100000000e-04 5.1099893000e-04 0.0000e+00 1.0000e+00
       50  1    1    2    0    0 +5.1128411608e-02 -1.7055083471e-02 +7.2926476623e+00 7.2928485418e+00 4.9935713700e-03 0.0000e+00 0.0000e+00
       11  1    1    2    0    0 -4.6950361485e-02 +1.4053256380e-02 +3.8440713180e+00 3.8443837464e+00 5.1099893000e-04 0.0000e+00 1.0000e+00
<vert_displacement>
131.20436578220267
</vert_displacement>
</event>
<event>
 4   1200 +8.5212000e+10 8.19308400e-03 7.81665300e-03            nan
       50 -1    0    0    0    0 +2.0640523169e-02 +1.2342347094e-02 +1.0694995763e+01 1.0695023968e+01 4.9935713700e-03 0.0000e+00 0.0000e+00
       11 -1    0    0    0    0 -1.6069800285e-19 -9.6092066670e-20 -8.3266516333e-17 5.1100000000e-04 5.1099893000e-04 0.0000e+00 1.0000e+00
       50  1    1    2    0    0 +1.9038007130e-02 +5.9800364898e-03 +1.0653560488e+01 1.0653580348e+01 4.9935713700e-03 0.0000e+00 0.0000e+00
       11  1    1    2    0    0 +1.6025160391e-03 +6.3623106041e-03 +4.1435274532e-02 4.1954620119e-02 5.1099893000e-04 0.0000e+00 1.0000e+00
<vert_displacement>
83.362268560333732
</vert_displacement>
</event>
<event>
 4   1200 +8.5212000e+10 1.65392300e-02 7.81665300e-03            nan
       50 -1    0    0    0    0 +1.9795856398e-02 +1.2083690822e-02 +5.7523996879e+00 5.7524486087e+00 4.9935713700e-03 0.0000e+00 0.0000e+00
       11 -1    0    0    0    0 -1.5282412997e-18 -9.3286165527e-19 -4.4408560048e-16 5.1100000000e-04 5.1099893000e-04 0.0000e+00 1.0000e+00
       50  1    1    2    0    0 +2.2684376444e-02 +2.6860171151e-02 +5.4977610383e+00 5.4978757188e+00 4.9935713700e-03 0.0000e+00 0.0000e+00
       11  1    1    2    0    0 -2.8885200460e-03 -1.4776480329e-02 +2.5463864957e-01 2.5508388991e-01 5.1099893000e-04 0.0000e+00 1.0000e+00
<vert_displacement>
225.44187252778113
</vert_displacement>
</event>
<event>
 4   1200 +8.5212000e+10 1.63319300e-02 7.81665300e-03            nan
       50 -1    0    0    0    0 +1.5756646117e-02 +1.1190011800e-02 +5.3282818766e+00 5.3283192642e+00 4.9935713700e-03 0.0000e+00 0.0000e+00
       11 -1    0    0    0    0 -8.8233282317e-19 -6.2661270867e-19 -2.9837047529e-16 5.1100000000e-04 5.1099893000e-04 0.0000e+00 1.0000e+00
       50  1    1    2    0    0 +2.3980468132e-02 +2.3378926341e-02 +5.0799995804e+00 5.0801124309e+00 4.9935713700e-03 0.0000e+00 0.0000e+00
       11  1    1    2    0    0 -8.2238220154e-03 -1.2188914541e-02 +2.4828229618e-01 2.4871783330e-01 5.1099893000e-04 0.0000e+00 1.0000e+00
<vert_displacement>
115.66233717231366
</vert_displacement>
</event>
<event>
 4   1200 +8.5212000e+10 1.23469100e-02 7.81665300e-03            nan
       50 -1    0    0    0    0 +1.7713013903e-02 +1.0120828296e-02 +1.7870119919e+01 1.7870132262e+01 4.9935713700e-03 0.0000e+00 0.0000e+00
       11 -1    0    0    0    0 -1.4718675620e-18 -8.4099289657e-19 -1.4849223278e-15 5.1100000000e-04 5.1099893000e-04 0.0000e+00 1.0000e+00
       50  1    1    2    0    0 +1.1692337223e-02 +1.9680143946e-02 +1.7744466463e+01 1.7744481931e+01 4.9935713700e-03 0.0000e+00 0.0000e+00
       11  1    1    2    0    0 +6.0206766806e-03 -9.5593156495e-03 +1.2565345671e-01 1.2616133071e-01 5.1099893000e-04 0.0000e+00 1.0000e+00
<vert_displacement>
382.48599657491030
</vert_displacement>
</event>
<event>
 4   1200 +8.5212000e+10 1.40631700e-02 7.81665300e-03            nan
       50 -1    0    0    0    0 +1.7701365172e-02 +2.1413892569e-02 +8.9104589479e+00 8.9105036609e+00 4.9935713700e-03 0.0000e+00 0.0000e+00
       11 -1    0    0    0    0 +2.3158162957e-18 +2.8015150743e-18 +1.1657285092e-15 5.1100000000e-04 5.1099893000e-04 0.0000e+00 1.0000e+00
       50  1    1    2    0    0 +1.5867095363e-02 +7.9375904289e-03 +8.7380204486e+00 8.7380398869e+00 4.9935713700e-03 0.0000e+00 0.0000e+00
       11  1    1    2    0    0 +1.8342698085e-03 +1.3476302140e-02 +1.7243849932e-01 1.7297477398e-01 5.1099893000e-04 0.0000e+00 1.0000e+00
<vert_displacement>
396.42660797019602
</vert_displacement>
</event>
<event>
 4   1200 +8.5212000e+10 5.46431000e-03 7.81665300e-03            nan
       50 -1    0    0    0    0 -4.3460031897e-02 +8.6139388778e-02 +6.7152577613e+01 6.7152647109e+01 4.9935713700e-03 0.0000e+00 0.0000e+00
       11 -1    0    0    0    0 -1.0777757156e-19 +2.1361912850e-19 +1.6653328181e-16 5.1100000000e-04 5.1099893000e-04 0.0000e+00 1.0000e+00
       50  1    1    2    0    0 -4.1281571010e-02 +8.5696395215e-02 +6.7147762249e+01 6.7147829809e+01 4.9935713700e-03 0.0000e+00 0.0000e+00
       11  1    1    2    0    0 -2.1784608864e-03 +4.4299356339e-04 +4.8153636327e-03 5.3283000997e-03 5.1099893000e-04 0.0000e+00 1.0000e+00
<vert_displacement>
354.58634138926601
</vert_displacement>
</event>
<event>
 4   1200 +8.5212000e+10 1.23841700e-02 7.81665300e-03            nan
       50 -1    0    0    0    0 -5.6843735858e-02 -5.0572387981e-02 +1.9393558525e+01 1.9393708412e+01 4.9935713700e-03 0.0000e+00 0.0000e+00
       11 -1    0    0    0    0 -7.8912124943e-18 -7.0206057692e-18 +2.6922701162e-15 5.1100000000e-04 5.1099893000e-04 0.0000e+00 1.0000e+00
       50  1    1    2    0    0 -5.5730755996e-02 -6.1550948103e-02 +1.9267035409e+01 1.9267214973e+01 4.9935713700e-03 0.0000e+00 0.0000e+00
       11  1    1    2    0    0 -1.1129798617e-03 +1.0978560122e-02 +1.2652311637e-01 1.2700443930e-01 5.1099893000e-04 0.0000e+00 1.0000e+00
<vert_displacement>
86.959358689082919
</vert_displacement>
</event>
<event>
 4   1200 +8.5212000e+10 2.12742200e-02 7.81665300e-03            nan
       50 -1    0    0    0    0 +2.6006145123e-03 -3.4942224855e-03 +1.8433836942e+00 1.8433956040e+00 4.9935713700e-03 0.0000e+00 0.0000e+00
       11 -1    0    0    0    0 +2.1046880478e-19 -2.8278886651e-19 +1.4918580245e-16 5.1100000000e-04 5.1099893000e-04 0.0000e+00 1.0000e+00
       50  1    1    2    0    0 +1.3567910898e-02 -1.9178204345e-02 +1.1906376535e+00 1.1908798636e+00 4.9935713700e-03 0.0000e+00 0.0000e+00
       11  1    1    2    0    0 -1.0967296385e-02 +1.5683981859e-02 +6.5274604070e-01 6.5302674038e-01 5.1099893000e-04 0.0000e+00 1.0000e+00
<vert_displacement>
35.410275817271270
</vert_displacement>
</event>
<event>
 4   1200 +8.5212000e+10 2.09850500e-02 7.81665300e-03            nan
       50 -1    0    0    0    0 -5.1806949083e-02 -2.7382295534e-02 +1.9504599884e+01 1.9504688547e+01 4.9935713700e-03 0.0000e+00 0.0000e+00
       11 -1    0    0    0    0 -4.3864806307e-18 -2.3184516964e-18 +1.6514492962e-15 5.1100000000e-04 5.1099893000e-04 0.0000e+00 1.0000e+00
       50  1    1    2    0    0 -6.2432073017e-02 -4.3468877275e-02 +1.9089186536e+01 1.9089338775e+01 4.9935713700e-03 0.0000e+00 0.0000e+00
       11  1    1    2    0    0 +1.0625123934e-02 +1.6086581741e-02 +4.1541334759e-01 4.1586077219e-01 5.1099893000e-04 0.0000e+00 1.0000e+00
<vert_displacement>
451.59794048717930
</vert_displacement>
</event>
<event>
 4   1200 +8.5212000e+10 2.25181700e-02 7.81665300e-03            nan
       50 -1    0    0    0    0 -1.7241453824e-02 -4.0572115650e-02 +2.0858018525e+01 2.0858065708e+01 4.9935713700e-03 0.0000e+00 0.0000e+00
       11 -1    0    0    0    0 +1.1471497303e-20 +2.6994412421e-20 -1.3877756812e-17 5.1100000000e-04 5.1099893000e-04 0.0000e+00 1.0000e+00
       50  1    1    2    0    0 -2.0247658542e-02 -1.7940892641e-02 +2.0375098029e+01 2.0375116600e+01 4.9935713700e-03 0.0000e+00 0.0000e+00
       11  1    1    2    0    0 +3.0062047187e-03 -2.2631223009e-02 +4.8292049606e-01 4.8346010813e-01 5.1099893000e-04 0.0000e+00 1.0000e+00
<vert_displacement>
410.22341677708056
</vert_displacement>
</event>
<event>
 4   1200 +8.5212000e+10 9.98273800e-03 7.81665300e-03            nan
       50 -1    0    0    0    0 +1.1463413599e-02 -1.0057283278e-02 +1.0201976682e+01 1.0201989302e+01 4.9935713700e-03 0.0000e+00 0.0000e+00
       11 -1    0    0    0    0 +6.7832629095e-19 -5.9512113072e-19 +6.0368309520e-16 5.1100000000e-04 5.1099893000e-04 0.0000e+00 1.0000e+00
       50  1    1    2    0    0 +1.4465833761e-02 -1.9099671355e-03 +1.0128333801e+01 1.0128345542e+01 4.9935713700e-03 0.0000e+00 0.0000e+00
       11  1    1    2    0    0 -3.0024201624e-03 -8.1473161423e-03 +7.3642880977e-02 7.4154759292e-02 5.1099893000e-04 0.0000e+00 1.0000e+00
<vert_displacement>
314.38761310336298
</vert_displacement>
</event>
<event>
 4   1200 +8.5212000e+10 1.14247800e-02 7.81665300e-03            nan
       50 -1    0    0    0    0 +2.3157292126e-02 +3.4429143779e-02 +2.3811495817e+01 2.3811532492e+01 4.9935713700e-03 0.0000e+00 0.0000e+00
       11 -1    0    0    0    0 +2.0109762793e-18 +2.9898224317e-18 +2.0677872440e-15 5.1100000000e-04 5.1099893000e-04 0.0000e+00 1.0000e+00
       50  1    1    2    0    0 +1.2953059817e-02 +3.6153383937e-02 +2.3707731245e+01 2.3707762876e+01 4.9935713700e-03 0.0000e+00 0.0000e+00
       11  1    1    2    0    0 +1.0204232309e-02 -1.7242401588e-03 +1.0376457245e-01 1.0428061650e-01 5.1099893000e-04 0.0000e+00 1.0000e+00
<vert_displacement>
227.18784432491859
</vert_displacement>
</event>
<event>
 4   1200 +8.5212000e+10 1.00983600e-02 7.81665300e-03            nan
       50 -1    0    0    0    0 -4.0426716249e-02 +4.8984353364e-02 +5.4688618594e+01 5.4688655701e+01 4.9935713700e-03 0.0000e+00 0.0000e+00
       11 -1    0    0    0    0 +1.6106126846e-18 -1.9515515529e-18 -2.1788112165e-15 5.1100000000e-04 5.1099893000e-04 0.0000e+00 1.0000e+00
       50  1    1    2    0    0 -3.7316454489e-02 +4.0688047735e-02 +5.4613140562e+01 5.4613168696e+01 4.9935713700e-03 0.0000e+00 0.0000e+00
       11  1    1    2    0    0 -3.1102617595e-03 +8.2963056291e-03 +7.5478032043e-02 7.5998005607e-02 5.1099893000e-04 0.0000e+00 1.0000e+00
<vert_displacement>
31.736048850730615
</vert_displacement>
</event>
<event>
 4   1200 +8.5212000e+10 1.26024000e-02 7.81665300e-03            nan
       50 -1    0    0    0    0 +2.6643393334e-02 +1.0918941512e-02 +9.4106762684e+00 9.4107216439e+00 4.9935713700e-03 0.0000e+00 0.0000e+00
       11 -1    0    0    0    0 +6.2864706910e-19 +2.5763086906e-19 +2.2204356556e-16 5.1100000000e-04 5.1099893000e-04 0.0000e+00 1.0000e+00
       50  1    1    2    0    0 +1.7132948922e-02 +1.7867608727e-02 +9.2778034270e+00 9.2778377952e+00 4.9935713700e-03 0.0000e+00 0.0000e+00
       11  1    1    2    0    0 +9.5104444121e-03 -6.9486672144e-03 +1.3287284145e-01 1.3339484864e-01 5.1099893000e-04 0.0000e+00 1.0000e+00
<vert_displacement>
415.44906057155885
</vert_displacement>
</event>
<event>
 4   1200 +8.5212000e+10 9.43360400e-03 7.81665300e-03            nan
       50 -1    0    0    0    0 -5.4884914753e-03 +1.1312503444e-02 +1.4889232572e+01 1.4889238719e+01 4.9935713700e-03 0.0000e+00 0.0000e+00
       11 -1    0    0    0    0 +8.6966038939e-20 -1.7924845459e-19 -2.3592230861e-16 5.1100000000e-04 5.1099893000e-04 0.0000e+00 1.0000e+00
       50  1    1    2    0    0 +2.5309780762e-03 +1.0922833287e-02 +1.4826288881e+01 1.4826293961e+01 4.9935713700e-03 0.0000e+00 0.0000e+00
       11  1    1    2    0    0 -8.0194695515e-03 +3.8967015648e-04 +6.2943691377e-02 6.3455757334e-02 5.1099893000e-04 0.0000e+00 1.0000e+00
<vert_displacement>
465.37597680145421
</vert_displacement>
</event>
<event>
 4   1200 +8.5212000e+10 3.88678500e-02 7.81665300e-03            nan
       50 -1    0    0    0    0 -2.1653698939e-02 +3.8563019088e-02 +2.5386260789e+01 2.5386299804e+01 4.9935713700e-03 0.0000e+00 0.0000e+00
       11 -1    0    0    0    0 -6.9840116078e-19 +1.2437809065e-18 +8.1878823812e-16 5.1100000000e-04 5.1099893000e-04 0.0000e+00 1.0000e+00
       50  1    1    2    0    0 +7.6824161457e-03 +6.2685699884e-02 +2.3837901719e+01 2.3837985901e+01 4.9935713700e-03 0.0000e+00 0.0000e+00
       11  1    1    2    0    0 -2.9336115084e-02 -2.4122680796e-02 +1.5483590697e+00 1.5488249033e+00 5.1099893000e-04 0.0000e+00 1.0000e+00
<vert_displacement>
283.19231927798342
</vert_displacement>
</event>
<event>
 4   1200 +8.5212000e+10 1.56328700e-02 7.81665300e-03            nan
       50 -1    0    0    0    0 +5.8808680361e-02 -7.1226134153e-03 +1.6878599103e+01 1.6878703795e+01 4.9935713700e-03 0.0000e+00 0.0000e+00
       11 -1    0    0    0    0 +7.2529363001e-19 -8.7843939151e-20 +2.0816553505e-16 5.1100000000e-04 5.1099893000e-04 0.0000e+00 1.0000e+00
       50  1    1    2    0    0 +4.4615988009e-02 -7.8932323347e-04 +1.6661108776e+01 1.6661169281e+01 4.9935713700e-03 0.0000e+00 0.0000e+00
       11  1    1    2    0    0 +1.4192692351e-02 -6.3332901818e-03 +2.1749032618e-01 2.1804551402e-01 5.1099893000e-04 0.0000e+00 1.0000e+00
<vert_displacement>
1.2216708184335352
</vert_displacement>
</event>
<event>
 4   1200 +8.5212000e+10 1.36480800e-02 7.81665300e-03            nan
       50 -1    0    0    0    0 +5.2502818337e-02 +4.1136964648e-02 +1.7802993270e+01 1.7803118915e+01 4.9935713700e-03 0.0000e+00 0.0000e+00
       11 -1    0    0    0    0 -1.0640943372e-18 -8.3373831196e-19 -3.6081995070e-16 5.1100000000e-04 5.1099893000e-04 0.0000e+00 1.0000e+00
       50  1    1    2    0    0 +6.4352479192e-02 +4.3861498790e-02 +1.7643657673e+01 1.7643830256e+01 4.9935713700e-03 0.0000e+00 0.0000e+00
       11  1    1    2    0    0 -1.1849660855e-02 -2.7245341418e-03 +1.5933559638e-01 1.5979965876e-01 5.1099893000e-04 0.0000e+00 1.0000e+00
<vert_displacement>
259.81531094923008
</vert_displacement>
</event>
<event>
 4   1200 +8.5212000e+10 4.83682300e-02 7.81665300e-03            nan
       50 -1    0    0    0    0 -2.2396996006e-03 -3.3427162284e-02 +1.6143972192e+01 1.6144007727e+01 4.9935713700e-03 0.0000e+00 0.0000e+00
       11 -1    0    0    0    0 -1.9253011906e-21 -2.8734815743e-20 +1.3877757926e-17 5.1100000000e-04 5.1099893000e-04 0.0000e+00 1.0000e+00
       50  1    1    2    0    0 +4.0778879732e-02 -5.0062204691e-02 +1.3418261640e+01 1.3418417922e+01 4.9935713700e-03 0.0000e+00 0.0000e+00
       11  1    1    2    0    0 -4.3018579333e-02 +1.6635042407e-02 +2.7257105523e+00 2.7261008049e+00 5.1099893000e-04 0.0000e+00 1.0000e+00
<vert_displacement>
198.97916544625690
</vert_displacement>
</event>
<event>
 4   1200 +8.5212000e+10 2.87226200e-02 7.81665300e-03            nan
       50 -1    0    0    0    0 +3.4460960634e-02 +3.2071340043e-02 +1.3251184694e+01 1.3251269255e+01 4.9935713700e-03 0.0000e+00 0.0000e+00
       11 -1    0    0    0    0 +3.3383503103e-18 +3.1068596468e-18 +1.2836872717e-15 5.1100000000e-04 5.1099893000e-04 0.0000e+00 1.0000e+00
       50  1    1    2    0    0 +1.8255201058e-02 +5.4607742900e-02 +1.2415511777e+01 1.2415646293e+01 4.9935713700e-03 0.0000e+00 0.0000e+00
       11  1    1    2    0    0 +1.6205759576e-02 -2.2536402857e-02 +8.3567291716e-01 8.3613396157e-01 5.1099893000e-04 0.0000e+00 1.0000e+00
<vert_displacement>
44.744643545050131
</vert_displacement>
</event>
<event>
 4   1200 +8.5212000e+10 7.16341300e-03 7.81665300e-03            nan
       50 -1    0    0    0    0 -3.4421679273e-02 +3.2969977301e-02 +1.7152481322e+01 1.7152548274e+01 4.9935713700e-03 0.0000e+00 0.0000e+00
       11 -1    0    0    0    0 +1.3089453740e-18 -1.2537418330e-18 -6.5225350862e-16 5.1100000000e-04 5.1099893000e-04 0.0000e+00 1.0000e+00
       50  1    1    2    0    0 -3.9354090944e-02 +3.1681119517e-02 +1.7126623126e+01 1.7126698371e+01 4.9935713700e-03 0.0000e+00 0.0000e+00
       11  1    1    2    0    0 +4.9324116712e-03 +1.2888577842e-03 +2.5858195629e-02 2.6360903633e-02 5.1099893000e-04 0.0000e+00 1.0000e+00
<vert_displacement>
75.892078341263144
</vert_displacement>
</event>
<event>
 4   1200 +8.5212000e+10 1.03494400e-02 7.81665300e-03            nan
       50 -1    0    0    0    0 -3.6191863728e-02 +2.2092567141e-02 +1.8593942956e+01 1.8593991974e+01 4.9935713700e-03 0.0000e+00 0.0000e+00
       11 -1    0    0    0    0 -4.2679139473e-18 +2.6052589096e-18 +2.1926847723e-15 5.1100000000e-04 5.1099893000e-04 0.0000e+00 1.0000e+00
       50  1    1    2    0    0 -3.3045909264e-02 +1.3438452462e-02 +1.8513199605e+01 1.8513234649e+01 4.9935713700e-03 0.0000e+00 0.0000e+00
       11  1    1    2    0    0 -3.1459544644e-03 +8.6541146794e-03 +8.0743351233e-02 8.1268324817e-02 5.1099893000e-04 0.0000e+00 1.0000e+00
<vert_displacement>
249.98098045573104
</vert_displacement>
</event>
<event>
 4   1200 +8.5212000e+10 1.84677700e-02 7.81665300e-03            nan
       50 -1    0    0    0    0 +9.3942692310e-03 -1.0197302582e-03 +1.2878051046e+01 1.2878055481e+01 4.9935713700e-03 0.0000e+00 0.0000e+00
       11 -1    0    0    0    0 +1.0275406894e-18 -1.1153760944e-19 +1.4085950833e-15 5.1100000000e-04 5.1099893000e-04 0.0000e+00 1.0000e+00
       50  1    1    2    0    0 +7.5938159844e-03 +1.6715853153e-02 +1.2560898144e+01 1.2560912554e+01 4.9935713700e-03 0.0000e+00 0.0000e+00
       11  1    1    2    0    0 +1.8004532466e-03 -1.7735583411e-02 +3.1715290289e-01 3.1765392723e-01 5.1099893000e-04 0.0000e+00 1.0000e+00
<vert_displacement>
118.57369753950481
</vert_displacement>
</event>
<event>
 4   1200 +8.5212000e+10 7.82752400e-03 7.81665300e-03            nan
       50 -1    0    0    0    0 -2.3366589704e-02 -1.0440862827e-02 +9.6481647434e+00 9.6481999804e+00 4.9935713700e-03 0.0000e+00 0.0000e+00
       11 -1    0    0    0    0 -2.3190944039e-18 -1.0362379303e-18 +9.5756398979e-16 5.1100000000e-04 5.1099893000e-04 0.0000e+00 1.0000e+00
       50  1    1    2    0    0 -2.9293755800e-02 -9.9888845366e-03 +9.6124643139e+00 9.6125154368e+00 4.9935713700e-03 0.0000e+00 0.0000e+00
       11  1    1    2    0    0 +5.9271660956e-03 -4.5197829040e-04 +3.5700429579e-02 3.6195543570e-02 5.1099893000e-04 0.0000e+00 1.0000e+00
<vert_displacement>
11.098089558132569
</vert_displacement>
</event>
<event>
 4   1200 +8.5212000e+10 2.43147700e-02 7.81665300e-03            nan
       50 -1    0    0    0    0 +1.1205062452e-02 -4.3007622714e-02 +2.0523886561e+01 2.0523935288e+01 4.9935713700e-03 0.0000e+00 0.0000e+00
       11 -1    0    0    0    0 +2.2729775967e-19 -8.7242140180e-19 +4.1633265811e-16 5.1100000000e-04 5.1099893000e-04 0.0000e+00 1.0000e+00
       50  1    1    2    0    0 +1.4929435125e-02 -1.8361570874e-02 +1.9953993005e+01 1.9954007663e+01 4.9935713700e-03 0.0000e+00 0.0000e+00
       11  1    1    2    0    0 -3.7243726733e-03 -2.4646051840e-02 +5.6989355550e-01 5.7043862469e-01 5.1099893000e-04 0.0000e+00 1.0000e+00
<vert_displacement>
485.04925248308552
</vert_displacement>
</event>
<event>
 4   1200 +8.5212000e+10 5.79728000e-02 7.81665300e-03            nan
       50 -1    0    0    0    0 -5.9340294893e-03 +7.9048491006e-04 +1.8477701529e+01 1.8477703174e+01 4.9935713700e-03 0.0000e+00 0.0000e+00
       11 -1    0    0    0    0 +1.0027772919e-18 -1.3358213316e-19 -3.1225020929e-15 5.1100000000e-04 5.1099893000e-04 0.0000e+00 1.0000e+00
       50  1    1    2    0    0 -6.0647964467e-02 +1.4449165263e-02 +1.4240650636e+01 1.4240787984e+01 4.9935713700e-03 0.0000e+00 0.0000e+00
       11  1    1    2    0    0 +5.4713934978e-02 -1.3658680353e-02 +4.2370508934e+00 4.2374261892e+00 5.1099893000e-04 0.0000e+00 1.0000e+00
<vert_displacement>
491.12224176146469
</vert_displacement>
</event>
<event>
 4   1200 +8.5212000e+10 9.67911100e-03 7.81665300e-03            nan
       50 -1    0    0    0    0 +8.8045843483e-03 -1.6044140142e-02 +1.4913292080e+01 1.4913304145e+01 4.9935713700e-03 0.0000e+00 0.0000e+00
       11 -1    0    0    0    0 -2.7856988669e-19 +5.0762354298e-19 -4.7184443018e-16 5.1100000000e-04 5.1099893000e-04 0.0000e+00 1.0000e+00
       50  1    1    2    0    0 +4.7339320244e-04 -1.5909397852e-02 +1.4845718564e+01 1.4845727936e+01 4.9935713700e-03 0.0000e+00 0.0000e+00
       11  1    1    2    0    0 +8.3311911458e-03 -1.3474228982e-04 +6.7573515670e-02 6.8087209087e-02 5.1099893000e-04 0.0000e+00 1.0000e+00
<vert_displacement>
486.59191412134311
</vert_displacement>
</event>
<event>
 4   1200 +8.5212000e+10 5.23814600e-03 7.81665300e-03            nan
       50 -1    0    0    0    0 +2.0007803573e-02 -2.9783323541e-02 +1.4020738353e+01 1.4020785151e+01 4.9935713700e-03 0.0000e+00 0.0000e+00
       11 -1    0    0    0    0 +2.6537019854e-18 -3.9502619328e-18 +1.8596174772e-15 5.1100000000e-04 5.1099893000e-04 0.0000e+00 1.0000e+00
       50  1    1    2    0    0 +1.9019042576e-02 -3.1015725873e-02 +1.4018288073e+01 1.4018336176e+01 4.9935713700e-03 0.0000e+00 0.0000e+00
       11  1    1    2    0    0 +9.8876099673e-04 +1.2324023318e-03 +2.4502800306e-03 2.9599756673e-03 5.1099893000e-04 0.0000e+00 1.0000e+00
<vert_displacement>
440.89157701598185
</vert_displacement>
</event>
<event>
 4   1200 +8.5212000e+10 2.48610100e-02 7.81665300e-03            nan
       50 -1    0    0    0    0 +3.2511999203e-03 -5.0893569598e-03 +2.5558361350e+00 2.5558481482e+00 4.9935713700e-03 0.0000e+00 0.0000e+00
       11 -1    0    0    0    0 +1.5005436238e-19 -2.3489180372e-19 +1.1796086706e-16 5.1100000000e-04 5.1099893000e-04 0.0000e+00 1.0000e+00
       50  1    1    2    0    0 -2.1203923976e-02 +3.7656445939e-03 +1.6545058798e+00 1.6546535675e+00 4.9935713700e-03 0.0000e+00 0.0000e+00
       11  1    1    2    0    0 +2.4455123897e-02 -8.8550015536e-03 +9.0133025520e-01 9.0170558066e-01 5.1099893000e-04 0.0000e+00 1.0000e+00
<vert_displacement>
64.836787384549552
</vert_displacement>
</event>
<event>
 4   1200 +8.5212000e+10 3.00793000e-02 7.81665300e-03            nan
       50 -1    0    0    0    0 +3.0971102595e-02 -4.4451088734e-02 +1.7251043552e+01 1.7251129345e+01 4.9935713700e-03 0.0000e+00 0.0000e+00
       11 -1    0    0    0    0 -2.9648747934e-18 +4.2553187159e-18 -1.6514486053e-15 5.1100000000e-04 5.1099893000e-04 0.0000e+00 1.0000e+00
       50  1    1    2    0    0 +4.7731651359e-02 -6.5380336239e-02 +1.6342090786e+01 1.6342292039e+01 4.9935713700e-03 0.0000e+00 0.0000e+00
       11  1    1    2    0    0 -1.6760548764e-02 +2.0929247505e-02 +9.0895276568e-01 9.0934830552e-01 5.1099893000e-04 0.0000e+00 1.0000e+00
<vert_displacement>
332.10298275710426
</vert_displacement>
</event>
<event>
 4   1200 +8.5212000e+10 7.20447300e-03 7.81665300e-03            nan
       50 -1    0    0    0    0 -1.3480197834e-02 +1.2086905223e-02 +4.1025724899e+01 4.1025729198e+01 4.9935713700e-03 0.0000e+00 0.0000e+00
       11 -1    0    0    0    0 -7.2047230289e-19 +6.4600538862e-19 +2.1926902601e-15 5.1100000000e-04 5.1099893000e-04 0.0000e+00 1.0000e+00
       50  1    1    2    0    0 -1.7537903834e-02 +1.5309172530e-02 +4.0999317147e+01 4.0999324060e+01 4.9935713700e-03 0.0000e+00 0.0000e+00
       11  1    1    2    0    0 +4.0577059993e-03 -3.2222673069e-03 +2.6407752058e-02 2.6916137784e-02 5.1099893000e-04 0.0000e+00 1.0000e+00
<vert_displacement>
231.87216394139151
</vert_displacement>
</event>
<event>
 4   1200 +8.5212000e+10 1.85536000e-02 7.81665300e-03            nan
       50 -1    0    0    0    0 -6.2644039087e-02 +2.4473512724e-02 +1.8912979897e+01 1.8913100136e+01 4.9935713700e-03 0.0000e+00 0.0000e+00
       11 -1    0    0    0    0 -1.5168800089e-18 +5.9260837485e-19 +4.5796410212e-16 5.1100000000e-04 5.1099893000e-04 0.0000e+00 1.0000e+00
       50  1    1    2    0    0 -7.9426576010e-02 +2.2963992615e-02 +1.8595142762e+01 1.8595327241e+01 4.9935713700e-03 0.0000e+00 0.0000e+00
       11  1    1    2    0    0 +1.6782536923e-02 +1.5095201089e-03 +3.1783713470e-01 3.1828389452e-01 5.1099893000e-04 0.0000e+00 1.0000e+00
<vert_displacement>
263.86931479120858
</vert_displacement>
</event>
<event>
 4   1200 +8.5212000e+10 1.01756700e-02 7.81665300e-03            nan
       50 -1    0    0    0    0 -2.3897072418e-02 -5.0706647940e-02 +2.9613585366e+01 2.9613638841e+01 4.9935713700e-03 0.0000e+00 0.0000e+00
       11 -1    0    0    0    0 +1.3662588992e-18 +2.8990333120e-18 -1.6930870793e-15 5.1100000000e-04 5.1099893000e-04 0.0000e+00 1.0000e+00
       50  1    1    2    0    0 -1.5188516011e-02 -4.8612593741e-02 +2.9536477177e+01 2.9536521509e+01 4.9935713700e-03 0.0000e+00 0.0000e+00
       11  1    1    2    0    0 -8.7085564071e-03 -2.0940541996e-03 +7.7108189146e-02 7.7628332269e-02 5.1099893000e-04 0.0000e+00 1.0000e+00
<vert_displacement>
487.42140235984590
</vert_displacement>
</event>
<event>
 4   1200 +8.5212000e+10 1.13316100e-02 7.81665300e-03            nan
       50 -1    0    0    0    0 -5.3650948397e-03 +1.2133874213e-02 +1.1444982626e+01 1.1444991405e+01 4.9935713700e-03 0.0000e+00 0.0000e+00
       11 -1    0    0    0    0 -4.9116698664e-19 +1.1108393443e-18 +1.0477722755e-15 5.1100000000e-04 5.1099893000e-04 0.0000e+00 1.0000e+00
       50  1    1    2    0    0 -5.2893816854e-03 +2.2197518675e-02 +1.1342811349e+01 1.1342835402e+01 4.9935713700e-03 0.0000e+00 0.0000e+00
       11  1    1    2    0    0 -7.5713154245e-05 -1.0063644462e-02 +1.0217127651e-01 1.0266700315e-01 5.1099893000e-04 0.0000e+00 1.0000e+00
<vert_displacement>
267.06829729384276
</vert_displacement>
</event>
<event>
 4   1200 +8.5212000e+10 2.20193900e-02 7.81665300e-03            nan
       50 -1    0    0    0    0 +3.0519576302e-02 +1.3761499310e-02 +2.0733364908e+01 2.0733392538e+01 4.9935713700e-03 0.0000e+00 0.0000e+00
       11 -1    0    0    0    0 -1.1439746806e-18 -5.1582651808e-19 -7.7715510408e-16 5.1100000000e-04 5.1099893000e-04 0.0000e+00 1.0000e+00
       50  1    1    2    0    0 +3.5641075029e-02 -7.1907678265e-03 +2.0273113031e+01 2.0273146250e+01 4.9935713700e-03 0.0000e+00 0.0000e+00
       11  1    1    2    0    0 -5.1214987269e-03 +2.0952267136e-02 +4.6025187699e-01 4.6075728821e-01 5.1099893000e-04 0.0000e+00 1.0000e+00
<vert_displacement>
445.12845491220565
</vert_displacement>
</event>
<event>
 4   1200 +8.5212000e+10 2.30297200e-02 7.81665300e-03            nan
       50 -1    0    0    0    0 +7.4712030537e-04 -1.2704263742e-02 +6.6850742352e+00 6.6850882135e+00 4.9935713700e-03 0.0000e+00 0.0000e+00
       11 -1    0    0    0    0 -4.0325253801e-20 +6.8570303347e-19 -3.6082182920e-16 5.1100000000e-04 5.1099893000e-04 0.0000e+00 1.0000e+00
       50  1    1    2    0    0 -1.8481731808e-02 +6.5229271119e-05 +6.1470481261e+00 6.1470779382e+00 4.9935713700e-03 0.0000e+00 0.0000e+00
       11  1    1    2    0    0 +1.9228852114e-02 -1.2769493013e-02 +5.3802610913e-01 5.3852127528e-01 5.1099893000e-04 0.0000e+00 1.0000e+00
<vert_displacement>
197.15593716831253
</vert_displacement>
</event>
<event>
 4   1200 +8.5212000e+10 9.94118000e-03 7.81665300e-03            nan
       50 -1    0    0    0    0 +1.6194342670e-02 -6.0327820060e-03 +1.7483028567e+01 1.7483037821e+01 4.9935713700e-03 0.0000e+00 0.0000e+00
       11 -1    0    0    0    0 +3.7279037081e-19 -1.3887337615e-19 +4.0245564981e-16 5.1100000000e-04 5.1099893000e-04 0.0000e+00 1.0000e+00
       50  1    1    2    0    0 +2.4601073949e-02 -7.4509284783e-03 +1.7410415516e+01 1.7410435208e+01 4.9935713700e-03 0.0000e+00 0.0000e+00
       11  1    1    2    0    0 -8.4067312797e-03 +1.4181464723e-03 +7.2613050385e-02 7.3113613481e-02 5.1099893000e-04 0.0000e+00 1.0000e+00
<vert_displacement>
397.56383052899548
</vert_displacement>
</event>
<event>
 4   1200 +8.5212000e+10 9.91870800e-03 7.81665300e-03            nan
       50 -1    0    0    0    0 +2.2359535704e-02 +2.1711838999e-02 +1.8257078600e+01 1.8257105885e+01 4.9935713700e-03 0.0000e+00 0.0000e+00
       11 -1    0    0    0    0 +1.3936860669e-18 +1.3533146618e-18 +1.1379769421e-15 5.1100000000e-04 5.1099893000e-04 0.0000e+00 1.0000e+00
       50  1    1    2    0    0 +1.4150903036e-02 +1.8886311896e-02 +1.8184940372e+01 1.8184956371e+01 4.9935713700e-03 0.0000e+00 0.0000e+00
       11  1    1    2    0    0 +8.2086326680e-03 +2.8255271030e-03 +7.2138228185e-02 7.2660514307e-02 5.1099893000e-04 0.0000e+00 1.0000e+00
<vert_displacement>
149.90034189381214
</vert_displacement>
</event>
<event>
 4   1200 +8.5212000e+10 1.37811800e-02 7.81665300e-03            nan
       50 -1    0    0    0    0 -1.6669265256e-02 -4.4009657421e-02 +1.9397812861e+01 1.9397870590e+01 4.9935713700e-03 0.0000e+00 0.0000e+00
       11 -1    0    0    0    0 +1.0017559788e-18 +2.6448038812e-18 -1.1657307452e-15 5.1100000000e-04 5.1099893000e-04 0.0000e+00 1.0000e+00
       50  1    1    2    0    0 -2.8971647358e-02 -4.6829993363e-02 +1.9234989502e+01 1.9235068975e+01 4.9935713700e-03 0.0000e+00 0.0000e+00
       11  1    1    2    0    0 +1.2302382102e-02 +2.8203359418e-03 +1.6282335836e-01 1.6331261448e-01 5.1099893000e-04 0.0000e+00 1.0000e+00
<vert_displacement>
297.39088913444510
</vert_displacement>
</event>
<event>
 4   1200 +8.5212000e+10 2.95635100e-02 7.81665300e-03            nan
       50 -1    0    0    0    0 -3.1094363014e-02 -4.6332881614e-03 +1.7749387506e+01 1.7749416049e+01 4.9935713700e-03 0.0000e+00 0.0000e+00
       11 -1    0    0    0    0 -4.2302604141e-18 -6.3033983001e-19 +2.4147312909e-15 5.1100000000e-04 5.1099893000e-04 0.0000e+00 1.0000e+00
       50  1    1    2    0    0 -5.8596960780e-02 -6.8783325476e-03 +1.6875440205e+01 1.6875544079e+01 4.9935713700e-03 0.0000e+00 0.0000e+00
       11  1    1    2    0    0 +2.7502597766e-02 +2.2450443862e-03 +8.7394730090e-01 8.7438297043e-01 5.1099893000e-04 0.0000e+00 1.0000e+00
<vert_displacement>
168.62958298235520
</vert_displacement>
</event>
<event>
 4   1200 +8.5212000e+10 9.96295000e-03 7.81665300e-03            nan
       50 -1    0    0    0    0 +2.7664788386e-02 -5.3860506144e-03 +1.8668914662e+01 1.8668936604e+01 4.9935713700e-03 0.0000e+00 0.0000e+00
       11 -1    0    0    0    0 -4.5242928758e-19 +8.8083342923e-20 -3.0531098385e-16 5.1100000000e-04 5.1099893000e-04 0.0000e+00 1.0000e+00
       50  1    1    2    0    0 +3.2245973881e-02 +1.8692592004e-03 +1.8595897302e+01 1.8595926024e+01 4.9935713700e-03 0.0000e+00 0.0000e+00
       11  1    1    2    0    0 -4.5811854944e-03 -7.2553098148e-03 +7.3017359306e-02 7.3521579559e-02 5.1099893000e-04 0.0000e+00 1.0000e+00
<vert_displacement>
405.27032305739004
</vert_displacement>
</event>
<event>
 4   1200 +8.5212000e+10 2.09355200e-02 7.81665300e-03            nan
       50 -1    0    0    0    0 +3.0198712612e-03 +2.8107884409e-03 +3.5093219026e+00 3.5093278804e+00 4.9935713700e-03 0.0000e+00 0.0000e+00
       11 -1    0    0    0    0 +1.8809000718e-19 +1.7506746888e-19 +2.1857500693e-16 5.1100000000e-04 5.1099893000e-04 0.0000e+00 1.0000e+00
       50  1    1    2    0    0 -1.1696692660e-02 +1.6874540067e-02 +3.0421938966e+00 3.0422672800e+00 4.9935713700e-03 0.0000e+00 0.0000e+00
       11  1    1    2    0    0 +1.4716563921e-02 -1.4063751626e-02 +4.6712800603e-01 4.6757160040e-01 5.1099893000e-04 0.0000e+00 1.0000e+00
<vert_displacement>
98.947340078636643
</vert_displacement>
</event>
<event>
 4   1200 +8.5212000e+10 2.23687200e-02 7.81665300e-03            nan
       50 -1    0    0    0    0 +6.0555397386e-02 -6.5882421133e-02 +4.2150470750e+01 4.2150566032e+01 4.9935713700e-03 0.0000e+00 0.0000e+00
       11 -1    0    0    0    0 -5.9812361295e-19 +6.5074020581e-19 -4.1633269603e-16 5.1100000000e-04 5.1099893000e-04 0.0000e+00 1.0000e+00
       50  1    1    2    0    0 +7.6881923703e-02 -5.1496358504e-02 +4.1680019390e+01 4.1680122408e+01 4.9935713700e-03 0.0000e+00 0.0000e+00
       11  1    1    2    0    0 -1.6326526317e-02 -1.4386062629e-02 +4.7045136011e-01 4.7095462372e-01 5.1099893000e-04 0.0000e+00 1.0000e+00
<vert_displacement>
370.54053003820411
</vert_displacement>
</event>
<event>
 4   1200 +8.5212000e+10 1.63170300e-02 7.81665300e-03            nan
       50 -1    0    0    0    0 +2.1766137765e-02 -2.3025085624e-02 +1.0958635171e+01 1.0958682113e+01 4.9935713700e-03 0.0000e+00 0.0000e+00
       11 -1    0    0    0    0 +1.3782034625e-18 -1.4579183994e-18 +6.9388649009e-16 5.1100000000e-04 5.1099893000e-04 0.0000e+00 1.0000e+00
       50  1    1    2    0    0 +3.2103797155e-02 -3.3666525940e-02 +1.0717133180e+01 1.0717235306e+01 4.9935713700e-03 0.0000e+00 0.0000e+00
       11  1    1    2    0    0 -1.0337659390e-02 +1.0641440315e-02 +2.4150199108e-01 2.4195780679e-01 5.1099893000e-04 0.0000e+00 1.0000e+00
<vert_displacement>
195.57446030763694
</vert_displacement>
</event>
<event>
 4   1200 +8.5212000e+10 1.98945900e-02 7.81665300e-03            nan
       50 -1    0    0    0    0 -5.7675196406e-03 +1.4546301974e-02 +9.5123981599e+00 9.5124123411e+00 4.9935713700e-03 0.0000e+00 0.0000e+00
       11 -1    0    0    0    0 -9.6764611536e-20 +2.4405070941e-19 +1.5959434385e-16 5.1100000000e-04 5.1099893000e-04 0.0000e+00 1.0000e+00
       50  1    1    2    0    0 -2.4675082255e-02 +1.6123469861e-02 +9.1344337305e+00 9.1344826530e+00 4.9935713700e-03 0.0000e+00 0.0000e+00
       11  1    1    2    0    0 +1.8907562615e-02 -1.5771678867e-03 +3.7796442941e-01 3.7844068809e-01 5.1099893000e-04 0.0000e+00 1.0000e+00
<vert_displacement>
174.16359207088715
</vert_displacement>
</event>
<event>
 4   1200 +8.5212000e+10 2.22646700e-02 7.81665300e-03            nan
       50 -1    0    0    0    0 +2.1894019694e-03 +2.2994459691e-03 +1.1758333034e+01 1.1758334523e+01 4.9935713700e-03 0.0000e+00 0.0000e+00
       11 -1    0    0    0    0 +1.2791019873e-19 +1.3433923737e-19 +6.8695047144e-16 5.1100000000e-04 5.1099893000e-04 0.0000e+00 1.0000e+00
       50  1    1    2    0    0 +9.3299198686e-03 -1.8251948052e-02 +1.1278008210e+01 1.1278027944e+01 4.9935713700e-03 0.0000e+00 0.0000e+00
       11  1    1    2    0    0 -7.1405178992e-03 +2.0551394021e-02 +4.8032482342e-01 4.8081757861e-01 5.1099893000e-04 0.0000e+00 1.0000e+00
<vert_displacement>
411.18021318293330
</vert_displacement>
</event>
<event>
 4   1200 +8.5212000e+10 6.54581800e-03 7.81665300e-03            nan
       50 -1    0    0    0    0 +2.6907321494e-02 -2.2636890236e-02 +1.1264680052e+01 1.1264736039e+01 4.9935713700e-03 0.0000e+00 0.0000e+00
       11 -1    0    0    0    0 +4.4751078080e-19 -3.7648683935e-19 +1.8734922265e-16 5.1100000000e-04 5.1099893000e-04 0.0000e+00 1.0000e+00
       50  1    1    2    0    0 +2.3090096212e-02 -2.0688770407e-02 +1.1247138391e+01 1.1247182230e+01 4.9935713700e-03 0.0000e+00 0.0000e+00
       11  1    1    2    0    0 +3.8172252820e-03 -1.9481198286e-03 +1.7541660401e-02 1.8064809693e-02 5.1099893000e-04 0.0000e+00 1.0000e+00
<vert_displacement>
320.68361114056319
</vert_displacement>
</event>
<event>
 4   1200 +8.5212000e+10 7.72195000e-03 7.81665300e-03            nan
       50 -1    0    0    0    0 +8.1840327104e-03 +7.1834766034e-03 +4.6904921898e+00 4.6905074884e+00 4.9935713700e-03 0.0000e+00 0.0000e+00
       11 -1    0    0    0    0 -1.4528449300e-18 -1.2752243219e-18 -8.3266502450e-16 5.1100000000e-04 5.1099893000e-04 0.0000e+00 1.0000e+00
       50  1    1    2    0    0 +2.7856851502e-03 +9.6193280823e-03 +4.6562974693e+00 4.6563109164e+00 4.9935713700e-03 0.0000e+00 0.0000e+00
       11  1    1    2    0    0 +5.3983475602e-03 -2.4358514790e-03 +3.4194720493e-02 3.4707572060e-02 5.1099893000e-04 0.0000e+00 1.0000e+00
<vert_displacement>
173.30092701271977
</vert_displacement>
</event>
<event>
 4   1200 +8.5212000e+10 6.32186100e-02 7.81665300e-03            nan
       50 -1    0    0    0    0 -7.7255004925e-02 -3.7208611359e-02 +2.4848193873e+01 2.4848342329e+01 4.9935713700e-03 0.0000e+00 0.0000e+00
       11 -1    0    0    0    0 -6.2562984311e-18 -3.0132439587e-18 +2.0122672504e-15 5.1100000000e-04 5.1099893000e-04 0.0000e+00 1.0000e+00
       50  1    1    2    0    0 -1.2015511296e-01 -5.4877574344e-02 +2.0024543472e+01 2.0024979775e+01 4.9935713700e-03 0.0000e+00 0.0000e+00
       11  1    1    2    0    0 +4.2900108039e-02 +1.7668962984e-02 +4.8236504010e+00 4.8238735539e+00 5.1099893000e-04 0.0000e+00 1.0000e+00
<vert_displacement>
410.63740975996984
</vert_displacement>
</event>
<event>
 4   1200 +8.5212000e+10 1.97833700e-02 7.81665300e-03            nan
       50 -1    0    0    0    0 +9.2313793163e-03 -1.1197359552e-02 +1.1537764952e+01 1.1537775159e+01 4.9935713700e-03 0.0000e+00 0.0000e+00
       11 -1    0    0    0    0 +6.6621753445e-20 -8.0809996183e-20 +8.3266660982e-17 5.1100000000e-04 5.1099893000e-04 0.0000e+00 -1.0000e+00
       50  1    1    2    0    0 -4.7635734657e-03 +2.5336685982e-03 +1.1167293421e+01 1.1167295841e+01 4.9935713700e-03 0.0000e+00 0.0000e+00
       11  1    1    2    0    0 +1.3994952782e-02 -1.3731028150e-02 +3.7047153106e-01 3.7099031831e-01 5.1099893000e-04 0.0000e+00 -1.0000e+00
<vert_displacement>
391.31919701019888
</vert_displacement>
</event>
<event>
 4   1200 +8.5212000e+10 1.12431400e-02 7.81665300e-03            nan
       50 -1    0    0    0    0 +2.1184719895e-03 +8.0653950651e-03 +6.4992059968e+00 6.4992132649e+00 4.9935713700e-03 0.0000e+00 0.0000e+00
       11 -1    0    0    0    0 -2.9403272284e-20 -1.1194342354e-19 -9.0205546499e-17 5.1100000000e-04 5.1099893000e-04 0.0000e+00 1.0000e+00
       50  1    1    2    0    0 +2.6692306087e-03 -2.1162067357e-03 +6.3983510902e+00 6.3983539455e+00 4.9935713700e-03 0.0000e+00 0.0000e+00
       11  1    1    2    0    0 -5.5075861921e-04 +1.0181601801e-02 +1.0085490664e-01 1.0137031944e-01 5.1099893000e-04 0.0000e+00 1.0000e+00
<vert_displacement>
345.68508111934699
</vert_displacement>
</event>
<event>
 4   1200 +8.5212000e+10 1.08421500e-02 7.81665300e-03            nan
       50 -1    0    0    0    0 +8.2014726773e-03 -4.2695630004e-03 +3.2425505147e+00 3.2425675428e+00 4.9935713700e-03 0.0000e+00 0.0000e+00
       11 -1    0    0    0    0 -3.3346263244e-19 +1.7359561795e-19 -1.3183844817e-16 5.1100000000e-04 5.1099893000e-04 0.0000e+00 1.0000e+00
       50  1    1    2    0    0 +5.7512634532e-03 +5.2189153649e-03 +3.1492245075e+00 3.1492380425e+00 4.9935713700e-03 0.0000e+00 0.0000e+00
       11  1    1    2    0    0 +2.4502092241e-03 -9.4884783653e-03 +9.3326007215e-02 9.3840500262e-02 5.1099893000e-04 0.0000e+00 1.0000e+00
<vert_displacement>
454.06609604944680
</vert_displacement>
</event>
<event>
 4   1200 +8.5212000e+10 1.24756100e-02 7.81665300e-03            nan
       50 -1    0    0    0    0 -7.5555314513e-03 +1.1720620620e-02 +7.5698243433e+00 7.5698388347e+00 4.9935713700e-03 0.0000e+00 0.0000e+00
       11 -1    0    0    0    0 +8.2416788494e-19 -1.2785016075e-18 -8.2572697349e-16 5.1100000000e-04 5.1099893000e-04 0.0000e+00 1.0000e+00
       50  1    1    2    0    0 -1.1578821761e-02 +2.2170665813e-02 +7.4396592515e+00 7.4397029727e+00 4.9935713700e-03 0.0000e+00 0.0000e+00
       11  1    1    2    0    0 +4.0232903096e-03 -1.0450045194e-02 +1.3016509180e-01 1.3064686201e-01 5.1099893000e-04 0.0000e+00 1.0000e+00
<vert_displacement>
351.61399897798384
</vert_displacement>
</event>
<event>
 4   1200 +8.5212000e+10 1.33487100e-02 7.81665300e-03            nan
       50 -1    0    0    0    0 -4.9957258077e-02 +4.4128534937e-02 +3.6488259271e+01 3.6488320496e+01 4.9935713700e-03 0.0000e+00 0.0000e+00
       11 -1    0    0    0    0 +2.9640775723e-18 -2.6182461917e-18 -2.1649312857e-15 5.1100000000e-04 5.1099893000e-04 0.0000e+00 1.0000e+00
       50  1    1    2    0    0 -5.6659328067e-02 +3.3673717737e-02 +3.6337685320e+01 3.6337745438e+01 4.9935713700e-03 0.0000e+00 0.0000e+00
       11  1    1    2    0    0 +6.7020699903e-03 +1.0454817201e-02 +1.5057395092e-01 1.5108605746e-01 5.1099893000e-04 0.0000e+00 1.0000e+00
<vert_displacement>
42.548563546091543
</vert_displacement>
</event>
<event>
 4   1200 +8.5212000e+10 8.21174100e-03 7.81665300e-03            nan
       50 -1    0    0    0    0 +5.4133738082e-03 +1.9741584619e-03 +1.9201806636e+00 1.9201958021e+00 4.9935713700e-03 0.0000e+00 0.0000e+00
       11 -1    0    0    0    0 -5.2817517063e-19 -1.9261582877e-19 -1.8734929188e-16 5.1100000000e-04 5.1099893000e-04 0.0000e+00 1.0000e+00
       50  1    1    2    0    0 +1.1404915699e-02 +4.1989407855e-03 +1.8776133212e+00 1.8776592936e+00 4.9935713700e-03 0.0000e+00 0.0000e+00
       11  1    1    2    0    0 -5.9915418912e-03 -2.2247823236e-03 +4.2567342391e-02 4.3047508509e-02 5.1099893000e-04 0.0000e+00 1.0000e+00
<vert_displacement>
427.18757801831447
</vert_displacement>
</event>
<event>
 4   1200 +8.5212000e+10 1.38087300e-02 7.81665300e-03            nan
       50 -1    0    0    0    0 +2.8081701694e-03 -3.1187161997e-02 +1.4692746444e+01 1.4692780660e+01 4.9935713700e-03 0.0000e+00 0.0000e+00
       11 -1    0    0    0    0 +3.8857720390e-19 -4.3154864112e-18 +2.0330912966e-15 5.1100000000e-04 5.1099893000e-04 0.0000e+00 1.0000e+00
       50  1    1    2    0    0 +2.7691656527e-04 -1.8209888791e-02 +1.4528757260e+01 1.4528769532e+01 4.9935713700e-03 0.0000e+00 0.0000e+00
       11  1    1    2    0    0 +2.5312536041e-03 -1.2977273206e-02 +1.6398918453e-01 1.6452212808e-01 5.1099893000e-04 0.0000e+00 1.0000e+00
<vert_displacement>
442.53595836431487
</vert_displacement>
</event>
<event>
 4   1200 +8.5212000e+10 3.26734800e-02 7.81665300e-03            nan
       50 -1    0    0    0    0 +1.3069738208e-02 -2.7401199842e-03 +1.4709218284e+01 1.4709225193e+01 4.9935713700e-03 0.0000e+00 0.0000e+00
       11 -1    0    0    0    0 -4.8090796104e-19 +1.0082417059e-19 -5.4123350146e-16 5.1100000000e-04 5.1099893000e-04 0.0000e+00 1.0000e+00
       50  1    1    2    0    0 +2.6288946038e-02 +2.6465360084e-02 +1.3606142532e+01 1.3606194584e+01 4.9935713700e-03 0.0000e+00 0.0000e+00
       11  1    1    2    0    0 -1.3219207830e-02 -2.9205480068e-02 +1.1030757517e+00 1.1035416089e+00 5.1099893000e-04 0.0000e+00 1.0000e+00
<vert_displacement>
441.68579899019210
</vert_displacement>
</event>
<event>
 4   1200 +8.5212000e+10 1.31221800e-02 7.81665300e-03            nan
       50 -1    0    0    0    0 +1.5178261159e-02 +8.2901746542e-03 +4.9937372372e+00 4.9937696820e+00 4.9935713700e-03 0.0000e+00 0.0000e+00
       11 -1    0    0    0    0 -6.3271077677e-19 -3.4557863975e-19 -2.0816556872e-16 5.1100000000e-04 5.1099893000e-04 0.0000e+00 1.0000e+00
       50  1    1    2    0    0 +6.2166037738e-03 +1.6694169304e-02 +4.8452090736e+00 4.8452443947e+00 4.9935713700e-03 0.0000e+00 0.0000e+00
       11  1    1    2    0    0 +8.9616573850e-03 -8.4039946497e-03 +1.4852816360e-01 1.4903628729e-01 5.1099893000e-04 0.0000e+00 1.0000e+00
<vert_displacement>
88.621134553685806
</vert_displacement>
</event>
<event>
 4   1200 +8.5212000e+10 1.21279500e-02 7.81665300e-03            nan
       50 -1    0    0    0    0 +5.3181716316e-02 +5.8750119118e-02 +3.4825317580e+01 3.4825408100e+01 4.9935713700e-03 0.0000e+00 0.0000e+00
       11 -1    0    0    0    0 -4.0901919625e-18 -4.5184563730e-18 -2.6784061125e-15 5.1100000000e-04 5.1099893000e-04 0.0000e+00 1.0000e+00
       50  1    1    2    0    0 +6.0143090853e-02 +5.0115279673e-02 +3.4705384103e+01 3.4705472759e+01 4.9935713700e-03 0.0000e+00 0.0000e+00
       11  1    1    2    0    0 -6.9613745362e-03 +8.6348394450e-03 +1.1993347701e-01 1.2044634164e-01 5.1099893000e-04 0.0000e+00 1.0000e+00
<vert_displacement>
130.55260006602464
</vert_displacement>
</event>
<event>
 4   1200 +8.5212000e+10 2.44399600e-02 7.81665300e-03            nan
       50 -1    0    0    0    0 +1.1900445960e-01 +2.2627630188e-02 +4.0991641643e+01 4.0991820935e+01 4.9935713700e-03 0.0000e+00 0.0000e+00
       11 -1    0    0    0    0 -1.2288138877e-17 -2.3364793484e-18 -4.2327067995e-15 5.1100000000e-04 5.1099893000e-04 0.0000e+00 1.0000e+00
       50  1    1    2    0    0 +1.1259191309e-01 -1.1311669760e-03 +4.0423735857e+01 4.0423892982e+01 4.9935713700e-03 0.0000e+00 0.0000e+00
       11  1    1    2    0    0 +6.4125465029e-03 +2.3758797164e-02 +5.6790578513e-01 5.6843895284e-01 5.1099893000e-04 0.0000e+00 1.0000e+00
<vert_displacement>
34.542648075738938
</vert_displacement>
</event>
<event>
 4   1200 +8.5212000e+10 2.79429000e-02 7.81665300e-03            nan
       50 -1    0    0    0    0 +4.4536493141e-02 +2.7543333756e-02 +1.5952778535e+01 1.5952865262e+01 4.9935713700e-03 0.0000e+00 0.0000e+00
       11 -1    0    0    0    0 +3.4481614385e-18 +2.1324952785e-18 +1.2351164607e-15 5.1100000000e-04 5.1099893000e-04 0.0000e+00 1.0000e+00
       50  1    1    2    0    0 +6.6336084863e-02 +1.2736507483e-02 +1.5175158357e+01 1.5175309512e+01 4.9935713700e-03 0.0000e+00 0.0000e+00
       11  1    1    2    0    0 -2.1799591722e-02 +1.4806826273e-02 +7.7762017890e-01 7.7806675039e-01 5.1099893000e-04 0.0000e+00 1.0000e+00
<vert_displacement>
453.86397976113454
</vert_displacement>
</event>
<event>
 4   1200 +8.5212000e+10 5.93523300e-03 7.81665300e-03            nan
       50 -1    0    0    0    0 -1.1604272514e-02 -6.8993158868e-03 +7.7491268752e+00 7.7491402441e+00 4.9935713700e-03 0.0000e+00 0.0000e+00
       11 -1    0    0    0    0 -1.1430031331e-19 -6.7957208565e-20 +7.6327717109e-17 5.1100000000e-04 5.1099893000e-04 0.0000e+00 1.0000e+00
       50  1    1    2    0    0 -9.3727597087e-03 -9.2095508324e-03 +7.7390446164e+00 7.7390573829e+00 4.9935713700e-03 0.0000e+00 0.0000e+00
       11  1    1    2    0    0 -2.2315128050e-03 +2.3102349456e-03 +1.0082258731e-02 1.0593861238e-02 5.1099893000e-04 0.0000e+00 1.0000e+00
<vert_displacement>
33.080616877245909
</vert_displacement>
</event>
<event>
 4   1200 +8.5212000e+10 2.43607300e-02 7.81665300e-03            nan
       50 -1    0    0    0    0 -1.0978425575e-01 +7.0822015212e-02 +3.4290759356e+01 3.4291008595e+01 4.9935713700e-03 0.0000e+00 0.0000e+00
       11 -1    0    0    0    0 +1.3417975461e-17 -8.6559594155e-18 -4.1910615000e-15 5.1100000000e-04 5.1099893000e-04 0.0000e+00 1.0000e+00
       50  1    1    2    0    0 -1.3090075439e-01 +7.6198976228e-02 +3.3725060486e+01 3.3725400976e+01 4.9935713700e-03 0.0000e+00 0.0000e+00
       11  1    1    2    0    0 +2.1116498648e-02 -5.3769610161e-03 +5.6569886972e-01 5.6611861880e-01 5.1099893000e-04 0.0000e+00 1.0000e+00
<vert_displacement>
3.5437223185536531
</vert_displacement>
</event>
<event>
 4   1200 +8.5212000e+10 1.46121000e-02 7.81665300e-03            nan
       50 -1    0    0    0    0 -4.3173472405e-02 -6.6028587263e-02 +3.2738983967e+01 3.2739079399e+01 4.9935713700e-03 0.0000e+00 0.0000e+00
       11 -1    0    0    0    0 +8.4183813715e-19 +1.2874892800e-18 -6.3837638577e-16 5.1100000000e-04 5.1099893000e-04 0.0000e+00 1.0000e+00
       50  1    1    2    0    0 -3.9362422516e-02 -5.2393176418e-02 +3.2553442188e+01 3.2553508530e+01 4.9935713700e-03 0.0000e+00 0.0000e+00
       11  1    1    2    0    0 -3.8110498892e-03 -1.3635410845e-02 +1.8554177977e-01 1.8608186825e-01 5.1099893000e-04 0.0000e+00 1.0000e+00
<vert_displacement>
171.30205595052828
</vert_displacement>
</event>
<event>
 4   1200 +8.5212000e+10 2.53646400e-02 7.81665300e-03            nan
       50 -1    0    0    0    0 -2.4262708811e-02 +2.5352573116e-02 +1.2375033041e+01 1.2375083803e+01 4.9935713700e-03 0.0000e+00 0.0000e+00
       11 -1    0    0    0    0 +4.3534283215e-19 -4.5489813476e-19 -2.2204371218e-16 5.1100000000e-04 5.1099893000e-04 0.0000e+00 1.0000e+00
       50  1    1    2    0    0 -4.5697313559e-02 +3.4232759336e-02 +1.1736860876e+01 1.1737000822e+01 4.9935713700e-03 0.0000e+00 0.0000e+00
       11  1    1    2    0    0 +2.1434604748e-02 -8.8801862198e-03 +6.3817216482e-01 6.3859398138e-01 5.1099893000e-04 0.0000e+00 1.0000e+00
<vert_displacement>
334.48511732921014
</vert_displacement>
</event>
<event>
 4   1200 +8.5212000e+10 2.50389200e-02 7.81665300e-03            nan
       50 -1    0    0    0    0 +5.6719652205e-03 +3.7952627377e-02 +1.6300164036e+01 1.6300209971e+01 4.9935713700e-03 0.0000e+00 0.0000e+00
       11 -1    0    0    0    0 -1.9316152029e-19 -1.2924950909e-18 -5.5510997401e-16 5.1100000000e-04 5.1099893000e-04 0.0000e+00 1.0000e+00
       50  1    1    2    0    0 -1.8928019249e-02 +3.3828207868e-02 +1.5688090713e+01 1.5688139398e+01 4.9935713700e-03 0.0000e+00 0.0000e+00
       11  1    1    2    0    0 +2.4599984469e-02 +4.1244195097e-03 +6.1207332309e-01 6.1258157336e-01 5.1099893000e-04 0.0000e+00 1.0000e+00
<vert_displacement>
378.21352982617088
</vert_displacement>
</event>
<event>
 4   1200 +8.5212000e+10 3.00878400e-02 7.81665300e-03            nan
       50 -1    0    0    0    0 -2.9007270212e-02 +3.8533143274e-03 +1.8910204597e+01 1.8910227897e+01 4.9935713700e-03 0.0000e+00 0.0000e+00
       11 -1    0    0    0    0 -2.1713534721e-18 +2.8844173832e-19 +1.4155326616e-15 5.1100000000e-04 5.1099893000e-04 0.0000e+00 -1.0000e+00
       50  1    1    2    0    0 -5.3287169890e-02 -1.1214186271e-02 +1.8005410696e+01 1.8005493732e+01 4.9935713700e-03 0.0000e+00 0.0000e+00
       11  1    1    2    0    0 +2.4279899678e-02 +1.5067500599e-02 +9.0479390158e-01 9.0524516489e-01 5.1099893000e-04 0.0000e+00 -1.0000e+00
<vert_displacement>
206.73867480069904
</vert_displacement>
</event>
<event>
 4   1200 +8.5212000e+10 3.06171100e-02 7.81665300e-03            nan
       50 -1    0    0    0    0 +5.3856329230e-04 -2.1413569762e-03 +4.2160527471e+00 4.2160562825e+00 4.9935713700e-03 0.0000e+00 0.0000e+00
       11 -1    0    0    0    0 +1.3295729172e-20 -5.2864543171e-20 +1.0408339428e-16 5.1100000000e-04 5.1099893000e-04 0.0000e+00 1.0000e+00
       50  1    1    2    0    0 -2.9040875432e-02 +5.3874422637e-03 +2.9263095065e+00 2.9264628241e+00 4.9935713700e-03 0.0000e+00 0.0000e+00
       11  1    1    2    0    0 +2.9579438724e-02 -7.5287992400e-03 +1.2897432405e+00 1.2901044584e+00 5.1099893000e-04 0.0000e+00 1.0000e+00
<vert_displacement>
195.52987515271516
</vert_displacement>
</event>
<event>
 4   1200 +8.5212000e+10 3.61489700e-02 7.81665300e-03            nan
       50 -1    0    0    0    0 -3.3828365114e-02 -3.0066544199e-02 +1.5703555482e+01 1.5703621496e+01 4.9935713700e-03 0.0000e+00 0.0000e+00
       11 -1    0    0    0    0 -1.7040263685e-18 -1.5145332609e-18 +7.9103061977e-16 5.1100000000e-04 5.1099893000e-04 0.0000e+00 1.0000e+00
       50  1    1    2    0    0 -1.6866302413e-02 +5.5170214542e-03 +1.4328848741e+01 1.4328860600e+01 4.9935713700e-03 0.0000e+00 0.0000e+00
       11  1    1    2    0    0 -1.6962062701e-02 -3.5583565653e-02 +1.3747067411e+00 1.3752718956e+00 5.1099893000e-04 0.0000e+00 1.0000e+00
<vert_displacement>
8.6282719643050942
</vert_displacement>
</event>
<event>
 4   1200 +8.5212000e+10 3.12134300e-02 7.81665300e-03            nan
       50 -1    0    0    0    0 -2.0177535502e-03 +2.6531722264e-02 +2.2926130035e+01 2.2926146019e+01 4.9935713700e-03 0.0000e+00 0.0000e+00
       11 -1    0    0    0    0 -1.4901059531e-19 +1.9593610571e-18 +1.6930889722e-15 5.1100000000e-04 5.1099893000e-04 0.0000e+00 1.0000e+00
       50  1    1    2    0    0 +2.8468515067e-02 +3.0421953702e-02 +2.1956115386e+01 2.1956155486e+01 4.9935713700e-03 0.0000e+00 0.0000e+00
       11  1    1    2    0    0 -3.0486268618e-02 -3.8902314380e-03 +9.7001464881e-01 9.7050153349e-01 5.1099893000e-04 0.0000e+00 1.0000e+00
<vert_displacement>
476.94673474501650
</vert_displacement>
</event>
<event>
 4   1200 +8.5212000e+10 2.17676100e-02 7.81665300e-03            nan
       50 -1    0    0    0    0 -7.5501142789e-03 +2.4336269869e-02 +1.7950607477e+01 1.7950626256e+01 4.9935713700e-03 0.0000e+00 0.0000e+00
       11 -1    0    0    0    0 -3.5606067852e-19 +1.1476897491e-18 +8.4654420341e-16 5.1100000000e-04 5.1099893000e-04 0.0000e+00 1.0000e+00
       50  1    1    2    0    0 -5.6061177625e-03 +4.4839729979e-02 +1.7500012926e+01 1.7500071982e+01 4.9935713700e-03 0.0000e+00 0.0000e+00
       11  1    1    2    0    0 -1.9439965164e-03 -2.0503460110e-02 +4.5059455040e-01 4.5106527351e-01 5.1099893000e-04 0.0000e+00 1.0000e+00
<vert_displacement>
29.389768645625239
</vert_displacement>
</event>
<event>
 4   1200 +8.5212000e+10 2.05223700e-02 7.81665300e-03            nan
       50 -1    0    0    0    0 +3.6264827754e-03 +2.0399428182e-03 +3.4658710987e+00 3.4658771936e+00 4.9935713700e-03 0.0000e+00 0.0000e+00
       11 -1    0    0    0    0 +2.9041773768e-20 +1.6336368183e-20 +2.7755555614e-17 5.1100000000e-04 5.1099893000e-04 0.0000e+00 1.0000e+00
       50  1    1    2    0    0 -1.6702487225e-02 +4.7582308049e-04 +3.0204970733e+00 3.0205474181e+00 4.9935713700e-03 0.0000e+00 0.0000e+00
       11  1    1    2    0    0 +2.0328970001e-02 +1.5641197378e-03 +4.4537402539e-01 4.4584077551e-01 5.1099893000e-04 0.0000e+00 1.0000e+00
<vert_displacement>
166.44936873867772
</vert_displacement>
</event>
<event>
 4   1200 +8.5212000e+10 5.76048100e-03 7.81665300e-03            nan
       50 -1    0    0    0    0 -2.2563793552e-02 -1.0732960071e-02 +7.9499519343e+00 7.9499927682e+00 4.9935713700e-03 0.0000e+00 0.0000e+00
       11 -1    0    0    0    0 +9.8470404301e-19 +4.6839593489e-19 -3.4694298161e-16 5.1100000000e-04 5.1099893000e-04 0.0000e+00 1.0000e+00
       50  1    1    2    0    0 -1.9694502724e-02 -1.0340564555e-02 +7.9418819667e+00 7.9419146879e+00 4.9935713700e-03 0.0000e+00 0.0000e+00
       11  1    1    2    0    0 -2.8692908284e-03 -3.9239551631e-04 +8.0699675866e-03 8.5890803265e-03 5.1099893000e-04 0.0000e+00 1.0000e+00
<vert_displacement>
219.39859868527597
</vert_displacement>
</event>
<event>
 4   1200 +8.5212000e+10 1.99251500e-02 7.81665300e-03            nan
       50 -1    0    0    0    0 -1.1569972110e-02 -5.1926829622e-05 +4.6064102813e+00 4.6064275184e+00 4.9935713700e-03 0.0000e+00 0.0000e+00
       11 -1    0    0    0    0 -6.7970924887e-19 -3.0505818011e-21 +2.7061600862e-16 5.1100000000e-04 5.1099893000e-04 0.0000e+00 1.0000e+00
       50  1    1    2    0    0 +3.9998062943e-03 -1.2690445815e-02 +4.2076311977e+00 4.2076551994e+00 4.9935713700e-03 0.0000e+00 0.0000e+00
       11  1    1    2    0    0 -1.5569778404e-02 +1.2638518985e-02 +3.9877908362e-01 3.9928331898e-01 5.1099893000e-04 0.0000e+00 1.0000e+00
<vert_displacement>
19.242813042851139
</vert_displacement>
</event>
<event>
 4   1200 +8.5212000e+10 6.82657500e-03 7.81665300e-03            nan
       50 -1    0    0    0    0 +1.3956105859e-02 -7.2532111134e-03 +6.8786240554e+00 6.8786438498e+00 4.9935713700e-03 0.0000e+00 0.0000e+00
       11 -1    0    0    0    0 -4.7866393827e-19 +2.4876929365e-19 -2.3592177599e-16 5.1100000000e-04 5.1099893000e-04 0.0000e+00 1.0000e+00
       50  1    1    2    0    0 +1.2728935230e-02 -1.1732392109e-02 +6.8573542271e+00 6.8573778959e+00 4.9935713700e-03 0.0000e+00 0.0000e+00
       11  1    1    2    0    0 +1.2271706286e-03 +4.4791809961e-03 +2.1269828242e-02 2.1776953954e-02 5.1099893000e-04 0.0000e+00 1.0000e+00
<vert_displacement>
14.741259047596143
</vert_displacement>
</event>
<event>
 4   1200 +8.5212000e+10 3.31572600e-02 7.81665300e-03            nan
       50 -1    0    0    0    0 -2.8773571746e-02 -2.4800767390e-02 +1.7841092801e+01 1.7841133940e+01 4.9935713700e-03 0.0000e+00 0.0000e+00
       11 -1    0    0    0    0 -5.5954058208e-19 -4.8228408847e-19 +3.4694390878e-16 5.1100000000e-04 5.1099893000e-04 0.0000e+00 1.0000e+00
       50  1    1    2    0    0 -4.1452101604e-02 -5.2644431075e-02 +1.6719002416e+01 1.6719137431e+01 4.9935713700e-03 0.0000e+00 0.0000e+00
       11  1    1    2    0    0 +1.2678529858e-02 +2.7843663685e-02 +1.1220903852e+00 1.1225075093e+00 5.1099893000e-04 0.0000e+00 1.0000e+00
<vert_displacement>
113.59309821075485
</vert_displacement>
</event>
<event>
 4   1200 +8.5212000e+10 1.58060400e-02 7.81665300e-03            nan
       50 -1    0    0    0    0 +4.1526570336e-03 +1.9110439229e-03 +5.7343010032e+00 5.7343049996e+00 4.9935713700e-03 0.0000e+00 0.0000e+00
       11 -1    0    0    0    0 -3.4169970209e-19 -1.5724947518e-19 -4.7184463554e-16 5.1100000000e-04 5.1099893000e-04 0.0000e+00 1.0000e+00
       50  1    1    2    0    0 +1.4406230895e-03 +1.6613437101e-02 +5.5050182481e+00 5.5050457699e+00 4.9935713700e-03 0.0000e+00 0.0000e+00
       11  1    1    2    0    0 +2.7120339441e-03 -1.4702393178e-02 +2.2928275515e-01 2.2977022963e-01 5.1099893000e-04 0.0000e+00 1.0000e+00
<vert_displacement>
114.31726720456547
</vert_displacement>
</event>
<event>
 4   1200 +8.5212000e+10 2.84421000e-02 7.81665300e-03            nan
       50 -1    0    0    0    0 -2.1853357689e-03 -1.3792391336e-02 +6.4588118106e+00 6.4588288370e+00 4.9935713700e-03 0.0000e+00 0.0000e+00
       11 -1    0    0    0    0 -6.8085208762e-20 -4.2970872340e-19 +2.0122745289e-16 5.1100000000e-04 5.1099893000e-04 0.0000e+00 1.0000e+00
       50  1    1    2    0    0 +1.8720808121e-02 +7.0683036519e-03 +5.5684493765e+00 5.5684875706e+00 4.9935713700e-03 0.0000e+00 0.0000e+00
       11  1    1    2    0    0 -2.0906143890e-02 -2.0860694988e-02 +8.9036243408e-01 8.9085226642e-01 5.1099893000e-04 0.0000e+00 1.0000e+00
<vert_displacement>
134.61408189700046
</vert_displacement>
</event>
<event>
 4   1200 +8.5212000e+10 1.11333500e-02 7.81665300e-03            nan
       50 -1    0    0    0    0 -1.7696772811e-02 +9.7619708923e-03 +6.7494068565e+00 6.7494389636e+00 4.9935713700e-03 0.0000e+00 0.0000e+00
       11 -1    0    0    0    0 -7.2774085817e-19 +4.0143958169e-19 +2.7755451179e-16 5.1100000000e-04 5.1099893000e-04 0.0000e+00 1.0000e+00
       50  1    1    2    0    0 -2.7265623683e-02 +8.0539348610e-03 +6.6510545400e+00 6.6511171775e+00 4.9935713700e-03 0.0000e+00 0.0000e+00
       11  1    1    2    0    0 +9.5688508711e-03 +1.7080360313e-03 +9.8352316583e-02 9.8832786013e-02 5.1099893000e-04 0.0000e+00 1.0000e+00
<vert_displacement>
215.74333176830177
</vert_displacement>
</event>
<event>
 4   1200 +8.5212000e+10 1.25340500e-02 7.81665300e-03            nan
       50 -1    0    0    0    0 +5.4926214902e-03 -8.6319919626e-04 +1.2123407829e+01 1.2123410132e+01 4.9935713700e-03 0.0000e+00 0.0000e+00
       11 -1    0    0    0    0 +1.9805495296e-19 -3.1125552074e-20 +4.3715026997e-16 5.1100000000e-04 5.1099893000e-04 0.0000e+00 1.0000e+00
       50  1    1    2    0    0 +1.6337248525e-02 -4.4970371269e-03 +1.1992662836e+01 1.1992675847e+01 4.9935713700e-03 0.0000e+00 0.0000e+00
       11  1    1    2    0    0 -1.0844627035e-02 +3.6338379307e-03 +1.3074499277e-01 1.3124528551e-01 5.1099893000e-04 0.0000e+00 1.0000e+00
<vert_displacement>
30.987344215744425
</vert_displacement>
</event>
<event>
 4   1200 +8.5212000e+10 5.88311000e-03 7.81665300e-03            nan
       50 -1    0    0    0    0 +5.7300929376e-02 -8.9843430011e-02 +4.0984882698e+01 4.0985021531e+01 4.9935713700e-03 0.0000e+00 0.0000e+00
       11 -1    0    0    0    0 -3.0267833950e-18 +4.7457625046e-18 -2.1649275805e-15 5.1100000000e-04 5.1099893000e-04 0.0000e+00 1.0000e+00
       50  1    1    2    0    0 +5.7154420184e-02 -9.2930312388e-02 +4.0975406840e+01 4.0975552385e+01 4.9935713700e-03 0.0000e+00 0.0000e+00
       11  1    1    2    0    0 +1.4650919217e-04 +3.0868823773e-03 +9.4758581769e-03 9.9801460836e-03 5.1099893000e-04 0.0000e+00 1.0000e+00
<vert_displacement>
105.75994833277952
</vert_displacement>
</event>
<event>
 4   1200 +8.5212000e+10 8.87909400e-03 7.81665300e-03            nan
       50 -1    0    0    0    0 -2.9032347186e-02 +2.2838979039e-02 +1.3359306010e+01 1.3359358012e+01 4.9935713700e-03 0.0000e+00 0.0000e+00
       11 -1    0    0    0    0 -1.2968366899e-18 +1.0201870964e-18 +5.9674259455e-16 5.1100000000e-04 5.1099893000e-04 0.0000e+00 1.0000e+00
       50  1    1    2    0    0 -2.2871785913e-02 +2.6914343201e-02 +1.3306357697e+01 1.3306405510e+01 4.9935713700e-03 0.0000e+00 0.0000e+00
       11  1    1    2    0    0 -6.1605612726e-03 -4.0753641624e-03 +5.2948313504e-02 5.3463502795e-02 5.1099893000e-04 0.0000e+00 1.0000e+00
<vert_displacement>
360.06305172891535
</vert_displacement>
</event>
<event>
 4   1200 +8.5212000e+10 8.83595500e-03 7.81665300e-03            nan
       50 -1    0    0    0    0 +3.3674334878e-02 -4.0441787573e-03 +9.7119923760e+00 9.7120528810e+00 4.9935713700e-03 0.0000e+00 0.0000e+00
       11 -1    0    0    0    0 -5.1005164612e-18 +6.1255553818e-19 -1.4710365376e-15 5.1100000000e-04 5.1099893000e-04 0.0000e+00 1.0000e+00
       50  1    1    2    0    0 +3.5188861784e-02 +3.0672047769e-03 +9.6597104373e+00 9.6597763086e+00 4.9935713700e-03 0.0000e+00 0.0000e+00
       11  1    1    2    0    0 -1.5145269060e-03 -7.1113835342e-03 +5.2281938718e-02 5.2787572434e-02 5.1099893000e-04 0.0000e+00 1.0000e+00
<vert_displacement>
70.019795802502713
</vert_displacement>
</event>
<event>
 4   1200 +8.5212000e+10 9.83456500e-03 7.81665300e-03            nan
       50 -1    0    0    0    0 +3.5737229701e-03 +1.3639745365e-02 +6.3667048128e+00 6.3667223847e+00 4.9935713700e-03 0.0000e+00 0.0000e+00
       11 -1    0    0    0    0 -2.7264239686e-20 -1.0405878967e-19 -4.8572138210e-17 5.1100000000e-04 5.1099893000e-04 0.0000e+00 1.0000e+00
       50  1    1    2    0    0 +9.9997274417e-03 +8.0125884682e-03 +6.2956740869e+00 6.2956891077e+00 4.9935713700e-03 0.0000e+00 0.0000e+00
       11  1    1    2    0    0 -6.4260044716e-03 +5.6271568970e-03 +7.1030725898e-02 7.1544276988e-02 5.1099893000e-04 0.0000e+00 1.0000e+00
<vert_displacement>
305.69360121771365
</vert_displacement>
</event>
<event>
 4   1200 +8.5212000e+10 9.87782200e-03 7.81665300e-03            nan
       50 -1    0    0    0    0 -2.3036375501e-02 +5.5290973635e-02 +2.1399326166e+01 2.1399410577e+01 4.9935713700e-03 0.0000e+00 0.0000e+00
       11 -1    0    0    0    0 +2.4351190419e-18 -5.8446739045e-18 -2.2620705513e-15 5.1100000000e-04 5.1099893000e-04 0.0000e+00 1.0000e+00
       50  1    1    2    0    0 -2.9966857693e-02 +5.0255530996e-02 +2.1328019805e+01 2.1328100651e+01 4.9935713700e-03 0.0000e+00 0.0000e+00
       11  1    1    2    0    0 +6.9304821917e-03 +5.0354426398e-03 +7.1306360543e-02 7.1820926197e-02 5.1099893000e-04 0.0000e+00 1.0000e+00
<vert_displacement>
476.84120172238511
</vert_displacement>
</event>
<event>
 4   1200 +8.5212000e+10 5.59081200e-02 7.81665300e-03            nan
       50 -1    0    0    0    0 +6.4568460555e-02 -1.8962019348e-02 +3.0840109731e+01 3.0840183556e+01 4.9935713700e-03 0.0000e+00 0.0000e+00
       11 -1    0    0    0    0 -3.6028436144e-18 +1.0580582182e-18 -1.7208415914e-15 5.1100000000e-04 5.1099893000e-04 0.0000e+00 1.0000e+00
       50  1    1    2    0    0 +2.9142096661e-02 +3.1102753731e-02 +2.7428379282e+01 2.7428412853e+01 4.9935713700e-03 0.0000e+00 0.0000e+00
       11  1    1    2    0    0 +3.5426363894e-02 -5.0064773079e-02 +3.4117304489e+00 3.4122817038e+00 5.1099893000e-04 0.0000e+00 1.0000e+00
<vert_displacement>
324.26452348364182
</vert_displacement>
</event>
<event>
 4   1200 +8.5212000e+10 2.95066600e-02 7.81665300e-03            nan
       50 -1    0    0    0    0 +3.7825460391e-04 -9.9883887508e-03 +4.3249207052e+00 4.3249351386e+00 4.9935713700e-03 0.0000e+00 0.0000e+00
       11 -1    0    0    0    0 +3.9446503817e-20 -1.0416449950e-18 +4.5102689919e-16 5.1100000000e-04 5.1099893000e-04 0.0000e+00 1.0000e+00
       50  1    1    2    0    0 -2.7310033039e-02 -1.6596243932e-02 +3.2064508719e+00 3.2066140091e+00 4.9935713700e-03 0.0000e+00 0.0000e+00
       11  1    1    2    0    0 +2.7688287643e-02 +6.6078551817e-03 +1.1184698332e+00 1.1188321295e+00 5.1099893000e-04 0.0000e+00 1.0000e+00
<vert_displacement>
3.4890619622395147
</vert_displacement>
</event>
<event>
 4   1200 +8.5212000e+10 2.45366900e-02 7.81665300e-03            nan
       50 -1    0    0    0    0 +1.6384097352e-02 +2.5919557255e-02 +1.6438478963e+01 1.6438508321e+01 4.9935713700e-03 0.0000e+00 0.0000e+00
       11 -1    0    0    0    0 +1.5906631393e-18 +2.5164208578e-18 +1.5959428213e-15 5.1100000000e-04 5.1099893000e-04 0.0000e+00 1.0000e+00
       50  1    1    2    0    0 -7.8078018822e-03 +2.9441914745e-02 +1.5852896795e+01 1.5852926844e+01 4.9935713700e-03 0.0000e+00 0.0000e+00
       11  1    1    2    0    0 +2.4191899234e-02 -3.5223574898e-03 +5.8558216782e-01 5.8609247682e-01 5.1099893000e-04 0.0000e+00 1.0000e+00
<vert_displacement>
18.137317040820015
</vert_displacement>
</event>
<event>
 4   1200 +8.5212000e+10 2.17526700e-02 7.81665300e-03            nan
       50 -1    0    0    0    0 +3.4124623528e-03 +2.1691141353e-03 +2.6409169958e+00 2.6409248124e+00 4.9935713700e-03 0.0000e+00 0.0000e+00
       11 -1    0    0    0    0 +1.1207606345e-19 +7.1240573028e-20 +8.6736072133e-17 5.1100000000e-04 5.1099893000e-04 0.0000e+00 1.0000e+00
       50  1    1    2    0    0 -6.4952436467e-03 -1.7363107017e-02 +2.0835430628e+00 2.0836315164e+00 4.9935713700e-03 0.0000e+00 0.0000e+00
       11  1    1    2    0    0 +9.9077059995e-03 +1.9532221152e-02 +5.5737393299e-01 5.5780429596e-01 5.1099893000e-04 0.0000e+00 1.0000e+00
<vert_displacement>
430.26515610267245
</vert_displacement>
</event>
<event>
 4   1200 +8.5212000e+10 1.95622400e-02 7.81665300e-03            nan
       50 -1    0    0    0    0 -9.5757736175e-03 +2.1413665382e-02 +1.3819816110e+01 1.3819836919e+01 4.9935713700e-03 0.0000e+00 0.0000e+00
       11 -1    0    0    0    0 -7.8369816883e-19 +1.7525320687e-18 +1.1310380771e-15 5.1100000000e-04 5.1099893000e-04 0.0000e+00 1.0000e+00
       50  1    1    2    0    0 -2.6845917919e-02 +1.3727680221e-02 +1.3460393987e+01 1.3460428684e+01 4.9935713700e-03 0.0000e+00 0.0000e+00
       11  1    1    2    0    0 +1.7270144302e-02 +7.6859851608e-03 +3.5942212288e-01 3.5991923509e-01 5.1099893000e-04 0.0000e+00 1.0000e+00
<vert_displacement>
242.28734407129022
</vert_displacement>
</event>
<event>
 4   1200 +8.5212000e+10 2.63196700e-02 7.81665300e-03            nan
       50 -1    0    0    0    0 -9.9436367167e-03 -1.4912794786e-02 +6.6428799056e+00 6.6429059637e+00 4.9935713700e-03 0.0000e+00 0.0000e+00
       11 -1    0    0    0    0 +7.2706887690e-20 +1.0904087977e-19 -4.8572080516e-17 5.1100000000e-04 5.1099893000e-04 0.0000e+00 1.0000e+00
       50  1    1    2    0    0 -6.5569701483e-03 +1.2477673910e-02 +5.9078360495e+00 5.9078549754e+00 4.9935713700e-03 0.0000e+00 0.0000e+00
       11  1    1    2    0    0 -3.3866665684e-03 -2.7390468696e-02 +7.3504385603e-01 7.3556198834e-01 5.1099893000e-04 0.0000e+00 1.0000e+00
<vert_displacement>
109.31124096176784
</vert_displacement>
</event>
<event>
 4   1200 +8.5212000e+10 7.89794500e-03 7.81665300e-03            nan
       50 -1    0    0    0    0 +1.6746595737e-02 -1.4637315956e-02 +6.0423373887e+00 6.0423803881e+00 4.9935713700e-03 0.0000e+00 0.0000e+00
       11 -1    0    0    0    0 +4.2308882136e-19 -3.6979962095e-19 +1.5265463167e-16 5.1100000000e-04 5.1099893000e-04 0.0000e+00 1.0000e+00
       50  1    1    2    0    0 +1.3065419087e-02 -1.9511126580e-02 +6.0054708251e+00 6.0055188083e+00 4.9935713700e-03 0.0000e+00 0.0000e+00
       11  1    1    2    0    0 +3.6811766505e-03 +4.8738106242e-03 +3.6866563581e-02 3.7372579811e-02 5.1099893000e-04 0.0000e+00 1.0000e+00
<vert_displacement>
305.55944029294739
</vert_displacement>
</event>
<event>
 4   1200 +8.5212000e+10 1.38146700e-02 7.81665300e-03            nan
       50 -1    0    0    0    0 -6.8811050063e-03 +2.2804812653e-03 +4.8383363148e+00 4.8383443223e+00 4.9935713700e-03 0.0000e+00 0.0000e+00
       11 -1    0    0    0    0 +2.3684440708e-19 -7.8493095605e-20 -1.6653326677e-16 5.1100000000e-04 5.1099893000e-04 0.0000e+00 1.0000e+00
       50  1    1    2    0    0 -1.8285090334e-02 +7.7096962688e-03 +4.6700834318e+00 4.6701282616e+00 4.9935713700e-03 0.0000e+00 0.0000e+00
       11  1    1    2    0    0 +1.1403985328e-02 -5.4292150035e-03 +1.6825288301e-01 1.6872706071e-01 5.1099893000e-04 0.0000e+00 1.0000e+00
<vert_displacement>
268.14633902556642
</vert_displacement>
</event>
<event>
 4   1200 +8.5212000e+10 1.71534500e-02 7.81665300e-03            nan
       50 -1    0    0    0    0 -2.5405652867e-02 +5.7313918683e-02 +2.2627140050e+01 2.2627227450e+01 4.9935713700e-03 0.0000e+00 0.0000e+00
       11 -1    0    0    0    0 -3.1163718044e-19 +7.0303834001e-19 +2.7755469082e-16 5.1100000000e-04 5.1099893000e-04 0.0000e+00 1.0000e+00
       50  1    1    2    0    0 -1.7123313255e-02 +7.0976433887e-02 +2.2360454072e+01 2.2360573832e+01 4.9935713700e-03 0.0000e+00 0.0000e+00
       11  1    1    2    0    0 -8.2823396121e-03 -1.3662515204e-02 +2.6668597807e-01 2.6716461871e-01 5.1099893000e-04 0.0000e+00 1.0000e+00
<vert_displacement>
84.004732045509840
</vert_displacement>
</event>
<event>
 4   1200 +8.5212000e+10 6.36381200e-03 7.81665300e-03            nan
       50 -1    0    0    0    0 -8.7714963416e-03 +1.0825294541e-02 +3.6779335115e+01 3.6779338093e+01 4.9935713700e-03 0.0000e+00 0.0000e+00
       11 -1    0    0    0    0 +9.3995781780e-19 -1.1600438326e-18 -3.9412914546e-15 5.1100000000e-04 5.1099893000e-04 0.0000e+00 1.0000e+00
       50  1    1    2    0    0 -9.1161259634e-03 +6.8912988232e-03 +3.6764102315e+01 3.6764104430e+01 4.9935713700e-03 0.0000e+00 0.0000e+00
       11  1    1    2    0    0 +3.4462962186e-04 +3.9339957174e-03 +1.5232800279e-02 1.5744663100e-02 5.1099893000e-04 0.0000e+00 1.0000e+00
<vert_displacement>
497.09082236374627
</vert_displacement>
</event>
<event>
 4   1200 +8.5212000e+10 1.32355000e-02 7.81665300e-03            nan
       50 -1    0    0    0    0 -8.8484583683e-02 +4.3954578767e-02 +2.5889485802e+01 2.5889674805e+01 4.9935713700e-03 0.0000e+00 0.0000e+00
       11 -1    0    0    0    0 -2.3715444645e-18 +1.1780610094e-18 +6.9388433766e-16 5.1100000000e-04 5.1099893000e-04 0.0000e+00 1.0000e+00
       50  1    1    2    0    0 -8.2649525559e-02 +5.4741526084e-02 +2.5741629669e+01 2.5741821042e+01 4.9935713700e-03 0.0000e+00 0.0000e+00
       11  1    1    2    0    0 -5.8350581236e-03 -1.0786947316e-02 +1.4785613210e-01 1.4836476353e-01 5.1099893000e-04 0.0000e+00 1.0000e+00
<vert_displacement>
212.30241277673827
</vert_displacement>
</event>
<event>
 4   1200 +8.5212000e+10 1.09541900e-02 7.81665300e-03            nan
       50 -1    0    0    0    0 +1.2258103441e-02 +9.2756918946e-03 +3.8098988590e+00 3.8099331426e+00 4.9935713700e-03 0.0000e+00 0.0000e+00
       11 -1    0    0    0    0 +4.3534259205e-19 +3.2942320742e-19 +1.3530732978e-16 5.1100000000e-04 5.1099893000e-04 0.0000e+00 1.0000e+00
       50  1    1    2    0    0 +2.2185486028e-03 +9.6227098191e-03 +3.7144993663e+00 3.7145158495e+00 4.9935713700e-03 0.0000e+00 0.0000e+00
       11  1    1    2    0    0 +1.0039554838e-02 -3.4701792450e-04 +9.5399492753e-02 9.5928293117e-02 5.1099893000e-04 0.0000e+00 1.0000e+00
<vert_displacement>
90.570054540892258
</vert_displacement>
</event>
<event>
 4   1200 +8.5212000e+10 2.60879000e-02 7.81665300e-03            nan
       50 -1    0    0    0    0 +2.6747479095e-02 +1.7179758025e-03 +8.8680421018e+00 8.8680840114e+00 4.9935713700e-03 0.0000e+00 0.0000e+00
       11 -1    0    0    0    0 +1.7998728472e-18 +1.1560483843e-19 +5.9674215019e-16 5.1100000000e-04 5.1099893000e-04 0.0000e+00 1.0000e+00
       50  1    1    2    0    0 +3.6733417368e-02 +2.4156504626e-02 +8.1716013903e+00 8.1717211834e+00 4.9935713700e-03 0.0000e+00 0.0000e+00
       11  1    1    2    0    0 -9.9859382732e-03 -2.2438528824e-02 +6.9644071150e-01 6.9687382810e-01 5.1099893000e-04 0.0000e+00 1.0000e+00
<vert_displacement>
0.17496474779305007
</vert_displacement>
</event>
<event>
 4   1200 +8.5212000e+10 6.64933900e-03 7.81665300e-03            nan
       50 -1    0    0    0    0 -7.6266424742e-02 +6.2138017431e-02 +3.5426068735e+01 3.5426205677e+01 4.9935713700e-03 0.0000e+00 0.0000e+00
       11 -1    0    0    0    0 +3.6449269253e-18 -2.9697017211e-18 -1.6930835846e-15 5.1100000000e-04 5.1099893000e-04 0.0000e+00 1.0000e+00
       50  1    1    2    0    0 -7.8917247825e-02 +5.8635904314e-02 +3.5407195802e+01 3.5407332653e+01 4.9935713700e-03 0.0000e+00 0.0000e+00
       11  1    1    2    0    0 +2.6508230835e-03 +3.5021131169e-03 +1.8872933265e-02 1.9384024072e-02 5.1099893000e-04 0.0000e+00 1.0000e+00
<vert_displacement>
186.92374774474354
</vert_displacement>
</event>
<event>
 4   1200 +8.5212000e+10 7.86716500e-03 7.81665300e-03            nan
       50 -1    0    0    0    0 -2.6282452652e-02 -3.3002530109e-03 +1.2501074937e+01 1.2501103998e+01 4.9935713700e-03 0.0000e+00 0.0000e+00
       11 -1    0    0    0    0 +4.6682895223e-19 +5.8619097524e-20 -2.2204410645e-16 5.1100000000e-04 5.1099893000e-04 0.0000e+00 1.0000e+00
       50  1    1    2    0    0 -2.8408781558e-02 -8.9568179788e-03 +1.2464801002e+01 1.2464837594e+01 4.9935713700e-03 0.0000e+00 0.0000e+00
       11  1    1    2    0    0 +2.1263289057e-03 +5.6565649678e-03 +3.6273935208e-02 3.6777404710e-02 5.1099893000e-04 0.0000e+00 1.0000e+00
<vert_displacement>
37.350883737934552
</vert_displacement>
</event>
<event>
 4   1200 +8.5212000e+10 8.83399600e-03 7.81665300e-03            nan
       50 -1    0    0    0    0 +5.3221742285e-02 -3.3746525058e-02 +2.4906493257e+01 2.4906573483e+01 4.9935713700e-03 0.0000e+00 0.0000e+00
       11 -1    0    0    0    0 +7.6805994987e-18 -4.8700687409e-18 +3.5943355368e-15 5.1100000000e-04 5.1099893000e-04 0.0000e+00 1.0000e+00
       50  1    1    2    0    0 +4.5859251120e-02 -3.2952634729e-02 +2.4854439264e+01 2.4854503918e+01 4.9935713700e-03 0.0000e+00 0.0000e+00
       11  1    1    2    0    0 +7.3624911652e-03 -7.9389032890e-04 +5.2053993545e-02 5.2580565820e-02 5.1099893000e-04 0.0000e+00 1.0000e+00
<vert_displacement>
272.83872082540279
</vert_displacement>
</event>
<event>
 4   1200 +8.5212000e+10 7.57694000e-03 7.81665300e-03            nan
       50 -1    0    0    0    0 -9.3162147360e-03 -6.6420573164e-02 +3.0890350342e+01 3.0890423560e+01 4.9935713700e-03 0.0000e+00 0.0000e+00
       11 -1    0    0    0    0 +2.5530875664e-19 +1.8202407770e-18 -8.4654306083e-16 5.1100000000e-04 5.1099893000e-04 0.0000e+00 1.0000e+00
       50  1    1    2    0    0 -3.6089079694e-03 -6.6250564306e-02 +3.0858543834e+01 3.0858615566e+01 4.9935713700e-03 0.0000e+00 0.0000e+00
       11  1    1    2    0    0 -5.7073067665e-03 -1.7000885787e-04 +3.1806508095e-02 3.2318993342e-02 5.1099893000e-04 0.0000e+00 1.0000e+00
<vert_displacement>
356.45208337666429
</vert_displacement>
</event>
<event>
 4   1200 +8.5212000e+10 1.66633500e-02 7.81665300e-03            nan
       50 -1    0    0    0    0 +7.3022711295e-02 +6.2092114553e-02 +2.9109802792e+01 2.9109961032e+01 4.9935713700e-03 0.0000e+00 0.0000e+00
       11 -1    0    0    0    0 -1.1488161151e-18 -9.7685255118e-19 -4.5796451492e-16 5.1100000000e-04 5.1099893000e-04 0.0000e+00 1.0000e+00
       50  1    1    2    0    0 +8.4736554290e-02 +7.1583246201e-02 +2.8860317328e+01 2.8860530931e+01 4.9935713700e-03 0.0000e+00 0.0000e+00
       11  1    1    2    0    0 -1.1713842995e-02 -9.4911316477e-03 +2.4948546407e-01 2.4994110027e-01 5.1099893000e-04 0.0000e+00 1.0000e+00
<vert_displacement>
198.35050645870751
</vert_displacement>
</event>
<event>
 4   1200 +8.5212000e+10 2.45158300e-02 7.81665300e-03            nan
       50 -1    0    0    0    0 +2.8328359179e-03 +5.4933724392e-03 +1.2724903702e+01 1.2724906183e+01 4.9935713700e-03 0.0000e+00 0.0000e+00
       11 -1    0    0    0    0 +1.1122172031e-19 +2.1567868761e-19 +4.9960030215e-16 5.1100000000e-04 5.1099893000e-04 0.0000e+00 1.0000e+00
       50  1    1    2    0    0 +2.5433993669e-02 -2.4632083955e-03 +1.2133668103e+01 1.2133696037e+01 4.9935713700e-03 0.0000e+00 0.0000e+00
       11  1    1    2    0    0 -2.2601157751e-02 +7.9565808347e-03 +5.9123559930e-01 5.9172114590e-01 5.1099893000e-04 0.0000e+00 1.0000e+00
<vert_displacement>
65.136276418644059
</vert_displacement>
</event>
<event>
 4   1200 +8.5212000e+10 1.22588800e-02 7.81665300e-03            nan
       50 -1    0    0    0    0 -3.1438948534e-02 -5.6210179282e-02 +2.4131209680e+01 2.4131296143e+01 4.9935713700e-03 0.0000e+00 0.0000e+00
       11 -1    0    0    0    0 +2.6397358541e-18 +4.7196243048e-18 -2.0261498035e-15 5.1100000000e-04 5.1099893000e-04 0.0000e+00 1.0000e+00
       50  1    1    2    0    0 -2.5930052054e-02 -6.5758668917e-02 +2.4007914957e+01 2.4008019537e+01 4.9935713700e-03 0.0000e+00 0.0000e+00
       11  1    1    2    0    0 -5.5088964792e-03 +9.5484896350e-03 +1.2329472218e-01 1.2378760533e-01 5.1099893000e-04 0.0000e+00 1.0000e+00
<vert_displacement>
408.04301990384420
</vert_displacement>
</event>
<event>
 4   1200 +8.5212000e+10 9.70227100e-03 7.81665300e-03            nan
       50 -1    0    0    0    0 +1.4806555198e-02 -1.6933821977e-03 +4.2510102332e+00 4.2510392894e+00 4.9935713700e-03 0.0000e+00 0.0000e+00
       11 -1    0    0    0    0 +1.1359188744e-18 -1.2991170291e-19 +3.2612600937e-16 5.1100000000e-04 5.1099893000e-04 0.0000e+00 1.0000e+00
       50  1    1    2    0    0 +1.5801540819e-02 +6.5604409089e-03 +4.1821717036e+00 4.1822096817e+00 4.9935713700e-03 0.0000e+00 0.0000e+00
       11  1    1    2    0    0 -9.9498562088e-04 -8.2538231065e-03 +6.8838529645e-02 6.9340607697e-02 5.1099893000e-04 0.0000e+00 1.0000e+00
<vert_displacement>
7.0728261105031756
</vert_displacement>
</event>
<event>
 4   1200 +8.5212000e+10 5.72651700e-02 7.81665300e-03            nan
       50 -1    0    0    0    0 -2.9347121329e-02 +2.0742135407e-02 +2.0737731566e+01 2.0737763306e+01 4.9935713700e-03 0.0000e+00 0.0000e+00
       11 -1    0    0    0    0 -2.4549003210e-18 +1.7350892545e-18 +1.7347208712e-15 5.1100000000e-04 5.1099893000e-04 0.0000e+00 1.0000e+00
       50  1    1    2    0    0 -4.0531524382e-02 -3.7722523691e-02 +1.6807725420e+01 1.6807817363e+01 4.9935713700e-03 0.0000e+00 0.0000e+00
       11  1    1    2    0    0 +1.1184403053e-02 +5.8464659098e-02 +3.9300061463e+00 3.9304569427e+00 5.1099893000e-04 0.0000e+00 1.0000e+00
<vert_displacement>
89.725152273690568
</vert_displacement>
</event>
<event>
 4   1200 +8.5212000e+10 1.44620200e-02 7.81665300e-03            nan
       50 -1    0    0    0    0 +3.7316236730e-02 -2.4884419400e-02 +1.1604424180e+01 1.1604511933e+01 4.9935713700e-03 0.0000e+00 0.0000e+00
       11 -1    0    0    0    0 +3.0122777639e-18 -2.0087444446e-18 +9.3674368001e-16 5.1100000000e-04 5.1099893000e-04 0.0000e+00 1.0000e+00
       50  1    1    2    0    0 +4.7183255051e-02 -3.3145233419e-02 +1.1421219778e+01 1.1421366425e+01 4.9935713700e-03 0.0000e+00 0.0000e+00
       11  1    1    2    0    0 -9.8670183213e-03 +8.2608140193e-03 +1.8320440134e-01 1.8365650789e-01 5.1099893000e-04 0.0000e+00 1.0000e+00
<vert_displacement>
200.12876865078084
</vert_displacement>
</event>
<event>
 4   1200 +8.5212000e+10 1.25096300e-02 7.81665300e-03            nan
       50 -1    0    0    0    0 +4.9061343576e-04 +6.4239036758e-03 +2.9436202594e+00 2.9436315453e+00 4.9935713700e-03 0.0000e+00 0.0000e+00
       11 -1    0    0    0    0 +1.2721535855e-20 +1.6657089876e-19 +7.6327650128e-17 5.1100000000e-04 5.1099893000e-04 0.0000e+00 1.0000e+00
       50  1    1    2    0    0 -6.4332373060e-03 +1.5290443732e-02 +2.8086150492e+00 2.8086684772e+00 4.9935713700e-03 0.0000e+00 0.0000e+00
       11  1    1    2    0    0 +6.9238507417e-03 -8.8665400560e-03 +1.3500521017e-01 1.3547406813e-01 5.1099893000e-04 0.0000e+00 1.0000e+00
<vert_displacement>
126.03283312621551
</vert_displacement>
</event>
<event>
 4   1200 +8.5212000e+10 8.07680200e-03 7.81665300e-03            nan
       50 -1    0    0    0    0 -3.4404870064e-02 -6.9267901111e-04 +2.7954963951e+01 2.7954985577e+01 4.9935713700e-03 0.0000e+00 0.0000e+00
       11 -1    0    0    0    0 +1.6225739698e-18 +3.2667553481e-20 -1.3183888429e-15 5.1100000000e-04 5.1099893000e-04 0.0000e+00 1.0000e+00
       50  1    1    2    0    0 -4.0042352863e-02 +2.1309574405e-03 +2.7915469027e+01 2.7915498274e+01 4.9935713700e-03 0.0000e+00 0.0000e+00
       11  1    1    2    0    0 +5.6374827985e-03 -2.8236364516e-03 +3.9494924070e-02 3.9998303493e-02 5.1099893000e-04 0.0000e+00 1.0000e+00
<vert_displacement>
188.31341825092375
</vert_displacement>
</event>
<event>
 4   1200 +8.5212000e+10 2.85762400e-02 7.81665300e-03            nan
       50 -1    0    0    0    0 +1.2360327892e-02 +1.5761785416e-02 +1.4845997673e+01 1.4846012025e+01 4.9935713700e-03 0.0000e+00 0.0000e+00
       11 -1    0    0    0    0 +2.8307827177e-19 +3.6097901404e-19 +3.4000549183e-16 5.1100000000e-04 5.1099893000e-04 0.0000e+00 1.0000e+00
       50  1    1    2    0    0 +2.1322117557e-02 -1.1540779416e-02 +1.4026000479e+01 1.4026022323e+01 4.9935713700e-03 0.0000e+00 0.0000e+00
       11  1    1    2    0    0 -8.9617896652e-03 +2.7302564832e-02 +8.1999719358e-01 8.2050070221e-01 5.1099893000e-04 0.0000e+00 1.0000e+00
<vert_displacement>
21.525523659497466
</vert_displacement>
</event>
<event>
 4   1200 +8.5212000e+10 1.56353600e-02 7.81665300e-03            nan
       50 -1    0    0    0    0 -7.6414920840e-02 +2.6676119274e-02 +3.0904298361e+01 3.0904404751e+01 4.9935713700e-03 0.0000e+00 0.0000e+00
       11 -1    0    0    0    0 +3.1226220729e-18 -1.0900938972e-18 -1.2628743595e-15 5.1100000000e-04 5.1099893000e-04 0.0000e+00 1.0000e+00
       50  1    1    2    0    0 -6.3311985706e-02 +1.8642657515e-02 +3.0688015034e+01 3.0688086412e+01 4.9935713700e-03 0.0000e+00 0.0000e+00
       11  1    1    2    0    0 -1.3102935134e-02 +8.0334617590e-03 +2.1628332777e-01 2.1682933936e-01 5.1099893000e-04 0.0000e+00 1.0000e+00
<vert_displacement>
457.42942805046147
</vert_displacement>
</event>
<event>
 4   1200 +8.5212000e+10 7.50140000e-02 7.81665300e-03            nan
       50 -1    0    0    0    0 -7.8006960426e-02 -2.9787258816e-02 +2.9069648979e+01 2.9069769333e+01 4.9935713700e-03 0.0000e+00 0.0000e+00
       11 -1    0    0    0    0 -4.2826231440e-18 -1.6353361713e-18 +1.5959390140e-15 5.1100000000e-04 5.1099893000e-04 0.0000e+00 1.0000e+00
       50  1    1    2    0    0 +3.9003578886e-03 +1.9314984269e-02 +2.1736908012e+01 2.1736917517e+01 4.9935713700e-03 0.0000e+00 0.0000e+00
       11  1    1    2    0    0 -8.1907318314e-02 -4.9102243085e-02 +7.3327409670e+00 7.3333628159e+00 5.1099893000e-04 0.0000e+00 1.0000e+00
<vert_displacement>
288.97380833342959
</vert_displacement>
</event>
<event>
 4   1200 +8.5212000e+10 7.95546500e-03 7.81665300e-03            nan
       50 -1    0    0    0    0 +8.8435604281e-03 +1.1349246491e-02 +7.3955213436e+00 7.3955370254e+00 4.9935713700e-03 0.0000e+00 0.0000e+00
       11 -1    0    0    0    0 -3.3190039518e-20 -4.2593923862e-20 -2.7755523089e-17 5.1100000000e-04 5.1099893000e-04 0.0000e+00 1.0000e+00
       50  1    1    2    0    0 +4.5436515741e-03 +1.5791394374e-02 +7.3577958934e+00 7.3578159367e+00 4.9935713700e-03 0.0000e+00 0.0000e+00
       11  1    1    2    0    0 +4.2999088540e-03 -4.4421478828e-03 +3.7725450198e-02 3.8232088702e-02 5.1099893000e-04 0.0000e+00 1.0000e+00
<vert_displacement>
225.55441626714062
</vert_displacement>
</event>
<event>
 4   1200 +8.5212000e+10 9.26373900e-03 7.81665300e-03            nan
       50 -1    0    0    0    0 +2.6337171518e-05 -7.9664877029e-04 +2.2421030911e+00 2.2421087935e+00 4.9935713700e-03 0.0000e+00 0.0000e+00
       11 -1    0    0    0    0 +1.1411212950e-21 -3.4516723855e-20 +9.7144508516e-17 5.1100000000e-04 5.1099893000e-04 0.0000e+00 1.0000e+00
       50  1    1    2    0    0 -5.0523992594e-03 +5.1492138543e-03 +2.1808282477e+00 2.1808458962e+00 4.9935713700e-03 0.0000e+00 0.0000e+00
       11  1    1    2    0    0 +5.0787364309e-03 -5.9458626246e-03 +6.1274843314e-02 6.1773897312e-02 5.1099893000e-04 0.0000e+00 1.0000e+00
<vert_displacement>
499.77982222231986
</vert_displacement>
</event>
<event>
 4   1200 +8.5212000e+10 8.71521400e-03 7.81665300e-03            nan
       50 -1    0    0    0    0 -2.1345636787e-02 +2.2370799189e-03 +6.8909442018e+00 6.8909794347e+00 4.9935713700e-03 0.0000e+00 0.0000e+00
       11 -1    0    0    0    0 +1.1821734791e-18 -1.2389494758e-19 -3.8163731364e-16 5.1100000000e-04 5.1099893000e-04 0.0000e+00 1.0000e+00
       50  1    1    2    0    0 -2.1759558617e-02 -4.8992632925e-03 +6.8406519954e+00 6.8406901801e+00 4.9935713700e-03 0.0000e+00 0.0000e+00
       11  1    1    2    0    0 +4.1392183014e-04 +7.1363432114e-03 +5.0292206365e-02 5.0800254593e-02 5.1099893000e-04 0.0000e+00 1.0000e+00
<vert_displacement>
308.79191326960796
</vert_displacement>
</event>
<event>
 4   1200 +8.5212000e+10 2.31978100e-02 7.81665300e-03            nan
       50 -1    0    0    0    0 +4.2900903377e-03 +8.9247582699e-04 +2.4468686138e+00 2.4468776329e+00 4.9935713700e-03 0.0000e+00 0.0000e+00
       11 -1    0    0    0    0 +1.1557634153e-19 +2.4043570850e-20 +6.5919386382e-17 5.1100000000e-04 5.1099893000e-04 0.0000e+00 1.0000e+00
       50  1    1    2    0    0 +1.4407722228e-02 -1.8964384066e-02 +1.7361037664e+00 1.7362743026e+00 4.9935713700e-03 0.0000e+00 0.0000e+00
       11  1    1    2    0    0 -1.0117631891e-02 +1.9856859893e-02 +7.1076484737e-01 7.1111433028e-01 5.1099893000e-04 0.0000e+00 1.0000e+00
<vert_displacement>
189.73255779557186
</vert_displacement>
</event>
<event>
 4   1200 +8.5212000e+10 1.29980300e-02 7.81665300e-03            nan
       50 -1    0    0    0    0 +3.4413053795e-02 -6.3223832896e-03 +1.2366239634e+01 1.2366290141e+01 4.9935713700e-03 0.0000e+00 0.0000e+00
       11 -1    0    0    0    0 +2.8964452467e-18 -5.3213635548e-19 +1.0408299194e-15 5.1100000000e-04 5.1099893000e-04 0.0000e+00 1.0000e+00
       50  1    1    2    0    0 +3.2681483560e-02 -1.8175567250e-02 +1.2223672300e+01 1.2223730522e+01 4.9935713700e-03 0.0000e+00 0.0000e+00
       11  1    1    2    0    0 +1.7315702350e-03 +1.1853183961e-02 +1.4256733362e-01 1.4307061907e-01 5.1099893000e-04 0.0000e+00 1.0000e+00
<vert_displacement>
371.86923460374226
</vert_displacement>
</event>
<event>
 4   1200 +8.5212000e+10 2.09186900e-02 7.81665300e-03            nan
       50 -1    0    0    0    0 +1.1586359355e-01 -6.6568198147e-02 +3.3459579463e+01 3.3459846660e+01 4.9935713700e-03 0.0000e+00 0.0000e+00
       11 -1    0    0    0    0 +5.5263849837e-18 -3.1751258473e-18 +1.5959328711e-15 5.1100000000e-04 5.1099893000e-04 0.0000e+00 1.0000e+00
       50  1    1    2    0    0 +9.4200099500e-02 -6.7388962854e-02 +3.3050872953e+01 3.3051076273e+01 4.9935713700e-03 0.0000e+00 0.0000e+00
       11  1    1    2    0    0 +2.1663494046e-02 +8.2076470748e-04 +4.0870651021e-01 4.0928138638e-01 5.1099893000e-04 0.0000e+00 1.0000e+00
<vert_displacement>
164.82042078882833
</vert_displacement>
</event>
<event>
 4   1200 +8.5212000e+10 6.92999500e-03 7.81665300e-03            nan
       50 -1    0    0    0    0 +3.7735174535e-02 +4.6825461986e-02 +1.8071425412e+01 1.8071526165e+01 4.9935713700e-03 0.0000e+00 0.0000e+00
       11 -1    0    0    0    0 +3.6512564460e-18 +4.5308328906e-18 +1.7485915817e-15 5.1100000000e-04 5.1099893000e-04 0.0000e+00 1.0000e+00
       50  1    1    2    0    0 +3.3669881760e-02 +4.9402049216e-02 +1.8048806057e+01 1.8048905763e+01 4.9935713700e-03 0.0000e+00 0.0000e+00
       11  1    1    2    0    0 +4.0652927743e-03 -2.5765872304e-03 +2.2619354968e-02 2.3131401733e-02 5.1099893000e-04 0.0000e+00 1.0000e+00
<vert_displacement>
344.65229325506908
</vert_displacement>
</event>
<event>
 4   1200 +8.5212000e+10 7.89963500e-03 7.81665300e-03            nan
       50 -1    0    0    0    0 -1.3896574427e-02 -1.2398004647e-02 +2.5061219232e+01 2.5061226649e+01 4.9935713700e-03 0.0000e+00 0.0000e+00
       11 -1    0    0    0    0 +5.4636646305e-19 +4.8744775075e-19 -9.8532266230e-16 5.1100000000e-04 5.1099893000e-04 0.0000e+00 1.0000e+00
       50  1    1    2    0    0 -7.8328339379e-03 -1.3352473682e-02 +2.5024505606e+01 2.5024510892e+01 4.9935713700e-03 0.0000e+00 0.0000e+00
       11  1    1    2    0    0 -6.0637404895e-03 +9.5446903476e-04 +3.6713626335e-02 3.7226757023e-02 5.1099893000e-04 0.0000e+00 1.0000e+00
<vert_displacement>
482.93243271618667
</vert_displacement>
</event>
<event>
 4   1200 +8.5212000e+10 7.81122300e-03 7.81665300e-03            nan
       50 -1    0    0    0    0 +2.5745555131e-02 -2.2300158614e-02 +1.2112980021e+01 1.2113028939e+01 4.9935713700e-03 0.0000e+00 0.0000e+00
       11 -1    0    0    0    0 -7.5215953610e-19 +6.5150185626e-19 -3.5388219005e-16 5.1100000000e-04 5.1099893000e-04 0.0000e+00 1.0000e+00
       50  1    1    2    0    0 +2.4239300142e-02 -2.8068636821e-02 +1.2077564470e+01 1.2077622442e+01 4.9935713700e-03 0.0000e+00 0.0000e+00
       11  1    1    2    0    0 +1.5062549890e-03 +5.7684782067e-03 +3.5415551190e-02 3.5917496167e-02 5.1099893000e-04 0.0000e+00 1.0000e+00
<vert_displacement>
140.46863120217751
</vert_displacement>
</event>
<event>
 4   1200 +8.5212000e+10 1.17992300e-02 7.81665300e-03            nan
       50 -1    0    0    0    0 -1.0122650915e-02 -1.7724745352e-02 +7.0431252646e+00 7.0431566122e+00 4.9935713700e-03 0.0000e+00 0.0000e+00
       11 -1    0    0    0    0 +0.0000000000e+00 -0.0000000000e+00 +0.0000000000e+00 5.1100000000e-04 5.1099893000e-04 0.0000e+00 1.0000e+00
       50  1    1    2    0    0 -1.2559175840e-02 -2.7808131031e-02 +6.9294208914e+00 6.9294898695e+00 4.9935713700e-03 0.0000e+00 0.0000e+00
       11  1    1    2    0    0 +2.4365249245e-03 +1.0083385679e-02 +1.1370437320e-01 1.1417774269e-01 5.1099893000e-04 0.0000e+00 1.0000e+00
<vert_displacement>
28.161938288746914
</vert_displacement>
</event>
<event>
 4   1200 +8.5212000e+10 1.84113800e-02 7.81665300e-03            nan
       50 -1    0    0    0    0 -6.8589562258e-02 +4.2727240371e-02 +2.5183462152e+01 2.5183592299e+01 4.9935713700e-03 0.0000e+00 0.0000e+00
       11 -1    0    0    0    0 +1.0583239735e-18 -6.5927323803e-19 -3.8857605813e-16 5.1100000000e-04 5.1099893000e-04 0.0000e+00 1.0000e+00
       50  1    1    2    0    0 -5.8075314918e-02 +2.7346998355e-02 +2.4872378552e+01 2.4872461888e+01 4.9935713700e-03 0.0000e+00 0.0000e+00
       11  1    1    2    0    0 -1.0514247340e-02 +1.5380242016e-02 +3.1108360049e-01 3.1164141069e-01 5.1099893000e-04 0.0000e+00 1.0000e+00
<vert_displacement>
269.12711532970150
</vert_displacement>
</event>
<event>
 4   1200 +8.5212000e+10 1.57765000e-02 7.81665300e-03            nan
       50 -1    0    0    0    0 -7.4130473885e-03 +5.5210818508e-02 +3.0561906675e+01 3.0561957852e+01 4.9935713700e-03 0.0000e+00 0.0000e+00
       11 -1    0    0    0    0 +4.5443274848e-19 -3.3845195755e-18 -1.8734982418e-15 5.1100000000e-04 5.1099893000e-04 0.0000e+00 1.0000e+00
       50  1    1    2    0    0 +5.9844669281e-03 +6.1587044909e-02 +3.0341157598e+01 3.0341221104e+01 4.9935713700e-03 0.0000e+00 0.0000e+00
       11  1    1    2    0    0 -1.3397514317e-02 -6.3762264004e-03 +2.2074907703e-01 2.2124774752e-01 5.1099893000e-04 0.0000e+00 1.0000e+00
<vert_displacement>
205.36334654470920
</vert_displacement>
</event>
<event>
 4   1200 +8.5212000e+10 7.96319800e-03 7.81665300e-03            nan
       50 -1    0    0    0    0 -5.2479032303e-02 +5.9276694330e-02 +2.7745005436e+01 2.7745118838e+01 4.9935713700e-03 0.0000e+00 0.0000e+00
       11 -1    0    0    0    0 +9.7122801874e-19 -1.0970321644e-18 -5.1347605847e-16 5.1100000000e-04 5.1099893000e-04 0.0000e+00 1.0000e+00
       50  1    1    2    0    0 -5.8353961321e-02 +6.0962160347e-02 +2.7707290096e+01 2.7707419061e+01 4.9935713700e-03 0.0000e+00 0.0000e+00
       11  1    1    2    0    0 +5.8749290186e-03 -1.6854660171e-03 +3.7715339103e-02 3.8210777410e-02 5.1099893000e-04 0.0000e+00 1.0000e+00
<vert_displacement>
198.38021991798271
</vert_displacement>
</event>
<event>
 4   1200 +8.5212000e+10 1.52052900e-02 7.81665300e-03            nan
       50 -1    0    0    0    0 -5.5897178568e-03 -1.9440559464e-02 +1.2722944086e+01 1.2722961147e+01 4.9935713700e-03 0.0000e+00 0.0000e+00
       11 -1    0    0    0    0 -3.9326172260e-19 -1.3677305544e-18 +8.9511618228e-16 5.1100000000e-04 5.1099893000e-04 0.0000e+00 1.0000e+00
       50  1    1    2    0    0 +8.5616142949e-03 -2.2050753070e-02 +1.2517798791e+01 1.2517822136e+01 4.9935713700e-03 0.0000e+00 0.0000e+00
       11  1    1    2    0    0 -1.4151332152e-02 +2.6101936059e-03 +2.0514529592e-01 2.0565001063e-01 5.1099893000e-04 0.0000e+00 1.0000e+00
<vert_displacement>
195.01277119834643
</vert_displacement>
</event>
<event>
 4   1200 +8.5212000e+10 5.95097500e-03 7.81665300e-03            nan
       50 -1    0    0    0    0 -3.0290284142e-02 +2.0263461293e-02 +9.9917293968e+00 9.9917971048e+00 4.9935713700e-03 0.0000e+00 0.0000e+00
       11 -1    0    0    0    0 -2.3138900963e-18 +1.5479360372e-18 +7.6327325250e-16 5.1100000000e-04 5.1099893000e-04 0.0000e+00 1.0000e+00
       50  1    1    2    0    0 -3.0311257914e-02 +2.3479247727e-02 +9.9814588623e+00 9.9815337500e+00 4.9935713700e-03 0.0000e+00 0.0000e+00
       11  1    1    2    0    0 +2.0973772202e-05 -3.2157864346e-03 +1.0270534543e-02 1.0774354830e-02 5.1099893000e-04 0.0000e+00 1.0000e+00
<vert_displacement>
381.36002762400318
</vert_displacement>
</event>
<event>
 4   1200 +8.5212000e+10 2.14968200e-02 7.81665300e-03            nan
       50 -1    0    0    0    0 +4.4070674287e-02 -2.7270739820e-02 +1.7012724881e+01 1.7012804552e+01 4.9935713700e-03 0.0000e+00 0.0000e+00
       11 -1    0    0    0    0 +7.6572644761e-18 -4.7382816495e-18 +2.9559550876e-15 5.1100000000e-04 5.1099893000e-04 0.0000e+00 1.0000e+00
       50  1    1    2    0    0 +2.2781876001e-02 -2.0990061831e-02 +1.6573657950e+01 1.6573687652e+01 4.9935713700e-03 0.0000e+00 0.0000e+00
       11  1    1    2    0    0 +2.1288798287e-02 -6.2806779885e-03 +4.3906693086e-01 4.3962790032e-01 5.1099893000e-04 0.0000e+00 1.0000e+00
<vert_displacement>
450.15493288027113
</vert_displacement>
</event>
<event>
 4   1200 +8.5212000e+10 2.59945000e-02 7.81665300e-03            nan
       50 -1    0    0    0    0 +8.3090270733e-03 -7.2894119514e-04 +8.9659012585e+00 8.9659065288e+00 4.9935713700e-03 0.0000e+00 0.0000e+00
       11 -1    0    0    0    0 -4.3727554958e-19 +3.8361670856e-20 -4.7184458129e-16 5.1100000000e-04 5.1099893000e-04 0.0000e+00 1.0000e+00
       50  1    1    2    0    0 -7.5950060343e-03 +1.9766631159e-02 +8.2758586147e+00 8.2758872122e+00 4.9935713700e-03 0.0000e+00 0.0000e+00
       11  1    1    2    0    0 +1.5904033108e-02 -2.0495572354e-02 +6.9004264377e-01 6.9053031657e-01 5.1099893000e-04 0.0000e+00 1.0000e+00
<vert_displacement>
288.39803300775435
</vert_displacement>
</event>
<event>
 4   1200 +8.5212000e+10 2.12852400e-02 7.81665300e-03            nan
       50 -1    0    0    0    0 -5.1888058932e-02 +9.6019483948e-03 +1.9275340789e+01 1.9275413667e+01 4.9935713700e-03 0.0000e+00 0.0000e+00
       11 -1    0    0    0    0 +2.7271362421e-18 -5.0465987746e-19 -1.0130747136e-15 5.1100000000e-04 5.1099893000e-04 0.0000e+00 1.0000e+00
       50  1    1    2    0    0 -5.9565196607e-02 +2.8100720682e-02 +1.8846852788e+01 1.8846968526e+01 4.9935713700e-03 0.0000e+00 0.0000e+00
       11  1    1    2    0    0 +7.6771376754e-03 -1.8498772288e-02 +4.2848800058e-01 4.2895614086e-01 5.1099893000e-04 0.0000e+00 1.0000e+00
<vert_displacement>
217.38843125930654
</vert_displacement>
</event>
<event>
 4   1200 +8.5212000e+10 9.70990300e-03 7.81665300e-03            nan
       50 -1    0    0    0    0 -2.6303455356e-02 +1.1483540620e-02 +8.8127421222e+00 8.8127902728e+00 4.9935713700e-03 0.0000e+00 0.0000e+00
       11 -1    0    0    0    0 +2.1331770865e-18 -9.3130067478e-19 -7.1470228189e-16 5.1100000000e-04 5.1099893000e-04 0.0000e+00 1.0000e+00
       50  1    1    2    0    0 -2.0040040053e-02 +5.6820894294e-03 +8.7443782124e+00 8.7444044478e+00 4.9935713700e-03 0.0000e+00 0.0000e+00
       11  1    1    2    0    0 -6.2634153029e-03 +5.8014511904e-03 +6.8363909843e-02 6.8896825007e-02 5.1099893000e-04 0.0000e+00 1.0000e+00
<vert_displacement>
286.42406963679656
</vert_displacement>
</event>
<event>
 4   1200 +8.5212000e+10 1.34649500e-02 7.81665300e-03            nan
       50 -1    0    0    0    0 +3.8424978445e-03 -7.2052160197e-03 +1.7152465286e+01 1.7152467957e+01 4.9935713700e-03 0.0000e+00 0.0000e+00
       11 -1    0    0    0    0 -1.7720751390e-19 +3.3228864911e-19 -7.9103381540e-16 5.1100000000e-04 5.1099893000e-04 0.0000e+00 1.0000e+00
       50  1    1    2    0    0 +1.4159908439e-02 -1.2571443299e-04 +1.6998066532e+01 1.6998073164e+01 4.9935713700e-03 0.0000e+00 0.0000e+00
       11  1    1    2    0    0 -1.0317410594e-02 -7.0795015867e-03 +1.5439875395e-01 1.5490579281e-01 5.1099893000e-04 0.0000e+00 1.0000e+00
<vert_displacement>
139.61593898774944
</vert_displacement>
</event>
<event>
 4   1200 +8.5212000e+10 1.13994000e-02 7.81665300e-03            nan
       50 -1    0    0    0    0 +1.7326641430e-02 +9.0311723534e-02 +7.3528480633e+01 7.3528538307e+01 4.9935713700e-03 0.0000e+00 0.0000e+00
       11 -1    0    0    0    0 +1.8182495580e-18 +9.4772695601e-18 +7.7160439867e-15 5.1100000001e-04 5.1099893000e-04 0.0000e+00 1.0000e+00
       50  1    1    2    0    0 +2.6329241405e-02 +8.5334910404e-02 +7.3425589631e+01 7.3425644109e+01 4.9935713700e-03 0.0000e+00 0.0000e+00
       11  1    1    2    0    0 -9.0025999756e-03 +4.9768131307e-03 +1.0289100215e-01 1.0340519774e-01 5.1099893000e-04 0.0000e+00 1.0000e+00
<vert_displacement>
263.77442246477347
</vert_displacement>
</event>
<event>
 4   1200 +8.5212000e+10 1.18931000e-02 7.81665300e-03            nan
       50 -1    0    0    0    0 +4.5938354299e-03 +1.6052089419e-02 +1.5464178908e+01 1.5464188727e+01 4.9935713700e-03 0.0000e+00 0.0000e+00
       11 -1    0    0    0    0 +1.6078042197e-19 +5.6180978832e-19 +5.4123340904e-16 5.1100000000e-04 5.1099893000e-04 0.0000e+00 1.0000e+00
       50  1    1    2    0    0 -5.8537072782e-03 +1.3091976671e-02 +1.5349324806e+01 1.5349332318e+01 4.9935713700e-03 0.0000e+00 0.0000e+00
       11  1    1    2    0    0 +1.0447542708e-02 +2.9601127487e-03 +1.1485410198e-01 1.1536740995e-01 5.1099893000e-04 0.0000e+00 1.0000e+00
<vert_displacement>
45.134145996485721
</vert_displacement>
</event>
<event>
 4   1200 +8.5212000e+10 1.00448400e-02 7.81665300e-03            nan
       50 -1    0    0    0    0 +3.6454308776e-03 -5.3851635041e-03 +2.3847813751e+00 2.3847954696e+00 4.9935713700e-03 0.0000e+00 0.0000e+00
       11 -1    0    0    0    0 +1.0606911104e-19 -1.5668916100e-19 +6.9388681057e-17 5.1100000000e-04 5.1099893000e-04 0.0000e+00 1.0000e+00
       50  1    1    2    0    0 +3.1605491655e-03 -1.3919544300e-02 +2.3079174344e+00 2.3079669761e+00 4.9935713700e-03 0.0000e+00 0.0000e+00
       11  1    1    2    0    0 +4.8488171214e-04 +8.5343807959e-03 +7.6863940685e-02 7.7339493556e-02 5.1099893000e-04 0.0000e+00 1.0000e+00
<vert_displacement>
434.55339108790599
</vert_displacement>
</event>
<event>
 4   1200 +8.5212000e+10 2.62683400e-02 7.81665300e-03            nan
       50 -1    0    0    0    0 -7.4373216006e-02 +1.9995262429e-02 +3.2874054966e+01 3.2874145555e+01 4.9935713700e-03 0.0000e+00 0.0000e+00
       11 -1    0    0    0    0 +5.6199877185e-18 -1.5109354592e-18 -2.4841172009e-15 5.1100000000e-04 5.1099893000e-04 0.0000e+00 1.0000e+00
       50  1    1    2    0    0 -9.8413778277e-02 +1.6037522197e-02 +3.2209788003e+01 3.2209942729e+01 4.9935713700e-03 0.0000e+00 0.0000e+00
       11  1    1    2    0    0 +2.4040562272e-02 +3.9577402326e-03 +6.6426696294e-01 6.6471382678e-01 5.1099893000e-04 0.0000e+00 1.0000e+00
<vert_displacement>
406.98839647878191
</vert_displacement>
</event>
<event>
 4   1200 +8.5212000e+10 1.37807700e-02 7.81665300e-03            nan
       50 -1    0    0    0    0 -1.0108956530e-03 -2.0413228317e-03 +2.3837735523e+00 2.3837798710e+00 4.9935713700e-03 0.0000e+00 0.0000e+00
       11 -1    0    0    0    0 -5.4438118832e-20 -1.0992803714e-19 +1.2836947861e-16 5.1100000000e-04 5.1099893000e-04 0.0000e+00 1.0000e+00
       50  1    1    2    0    0 +2.4519016326e-03 +1.0497050121e-02 +2.2094489474e+00 2.2094808863e+00 4.9935713700e-03 0.0000e+00 0.0000e+00
       11  1    1    2    0    0 -3.4627972856e-03 -1.2538372952e-02 +1.7432460492e-01 1.7480998473e-01 5.1099893000e-04 0.0000e+00 1.0000e+00
<vert_displacement>
270.06823234292665
</vert_displacement>
</event>
<event>
 4   1200 +8.5212000e+10 5.11811200e-02 7.81665300e-03            nan
       50 -1    0    0    0    0 -7.3177998070e-02 -4.8432730818e-03 +2.2457844868e+01 2.2457965169e+01 4.9935713700e-03 0.0000e+00 0.0000e+00
       11 -1    0    0    0    0 -8.1395965502e-19 -5.3871778278e-20 +2.4979884861e-16 5.1100000000e-04 5.1099893000e-04 0.0000e+00 1.0000e+00
       50  1    1    2    0    0 -1.4571900585e-02 -1.7781396109e-02 +1.9539577876e+01 1.9539592038e+01 4.9935713700e-03 0.0000e+00 0.0000e+00
       11  1    1    2    0    0 -5.8606097485e-02 +1.2938123028e-02 +2.9182669920e+00 2.9188841305e+00 5.1099893000e-04 0.0000e+00 1.0000e+00
<vert_displacement>
394.70433048473257
</vert_displacement>
</event>
<event>
 4   1200 +8.5212000e+10 2.37003600e-02 7.81665300e-03            nan
       50 -1    0    0    0    0 +1.4699614077e-01 -4.0005826168e-02 +4.9801843482e+01 4.9802076739e+01 4.9935713700e-03 0.0000e+00 0.0000e+00
       11 -1    0    0    0    0 -1.8596644014e-17 +5.0611812243e-18 -6.3004861869e-15 5.1100000000e-04 5.1099893000e-04 0.0000e+00 1.0000e+00
       50  1    1    2    0    0 +1.2843114255e-01 -5.5322203811e-02 +4.9270999437e+01 4.9271198134e+01 4.9935713700e-03 0.0000e+00 0.0000e+00
       11  1    1    2    0    0 +1.8564998222e-02 +1.5316377643e-02 +5.3084404531e-01 5.3138960486e-01 5.1099893000e-04 0.0000e+00 1.0000e+00
<vert_displacement>
53.779820139822981
</vert_displacement>
</event>
<event>
 4   1200 +8.5212000e+10 2.36096200e-02 7.81665300e-03            nan
       50 -1    0    0    0    0 +2.4029702274e-03 +3.9673205476e-03 +3.3634072982e+00 3.3634142033e+00 4.9935713700e-03 0.0000e+00 0.0000e+00
       11 -1    0    0    0    0 +2.6026637625e-19 +4.2970159621e-19 +3.6429158355e-16 5.1100000000e-04 5.1099893000e-04 0.0000e+00 1.0000e+00
       50  1    1    2    0    0 +2.2451933577e-02 +1.3778503893e-02 +2.7172800872e+00 2.7174123619e+00 4.9935713700e-03 0.0000e+00 0.0000e+00
       11  1    1    2    0    0 -2.0048963349e-02 -9.8111833458e-03 +6.4612721098e-01 6.4651284143e-01 5.1099893000e-04 0.0000e+00 1.0000e+00
<vert_displacement>
277.91434130906953
</vert_displacement>
</event>
<event>
 4   1200 +8.5212000e+10 9.28507200e-03 7.81665300e-03            nan
       50 -1    0    0    0    0 -2.3396662008e-02 -6.2495654415e-03 +8.9273891979e+00 8.9274234405e+00 4.9935713700e-03 0.0000e+00 0.0000e+00
       11 -1    0    0    0    0 -1.1274824002e-18 -3.0116582620e-19 +4.3020983919e-16 5.1100000000e-04 5.1099893000e-04 0.0000e+00 1.0000e+00
       50  1    1    2    0    0 -3.0561766310e-02 -8.9723221031e-03 +8.8669977626e+00 8.8670563764e+00 4.9935713700e-03 0.0000e+00 0.0000e+00
       11  1    1    2    0    0 +7.1651043027e-03 +2.7227566616e-03 +6.0391435225e-02 6.0878064128e-02 5.1099893000e-04 0.0000e+00 1.0000e+00
<vert_displacement>
438.10269492365978
</vert_displacement>
</event>
<event>
 4   1200 +8.5212000e+10 2.06199400e-02 7.81665300e-03            nan
       50 -1    0    0    0    0 -6.2946265516e-02 +6.2557773100e-02 +3.9399576185e+01 3.9399676448e+01 4.9935713700e-03 0.0000e+00 0.0000e+00
       11 -1    0    0    0    0 +4.4786686182e-18 -4.4510271247e-18 -2.8033060259e-15 5.1100000000e-04 5.1099893000e-04 0.0000e+00 1.0000e+00
       50  1    1    2    0    0 -5.9828196758e-02 +8.1780704751e-02 +3.9003939577e+01 3.9004071518e+01 4.9935713700e-03 0.0000e+00 0.0000e+00
       11  1    1    2    0    0 -3.1180687581e-03 -1.9222931650e-02 +3.9563660830e-01 3.9611593051e-01 5.1099893000e-04 0.0000e+00 1.0000e+00
<vert_displacement>
43.586260378465262
</vert_displacement>
</event>
<event>
 4   1200 +8.5212000e+10 2.68497800e-02 7.81665300e-03            nan
       50 -1    0    0    0    0 +1.1728684996e-02 -4.7050274540e-03 +5.1480345001e+00 5.1480524327e+00 4.9935713700e-03 0.0000e+00 0.0000e+00
       11 -1    0    0    0    0 -1.5808723818e-20 +6.3417578015e-21 -6.9388729975e-18 5.1100000000e-04 5.1099893000e-04 0.0000e+00 1.0000e+00
       50  1    1    2    0    0 -1.0640389570e-02 +1.2605959963e-02 +4.3394074542e+00 4.3394416827e+00 4.9935713700e-03 0.0000e+00 0.0000e+00
       11  1    1    2    0    0 +2.2369074566e-02 -1.7310987417e-02 +8.0862704588e-01 8.0912174994e-01 5.1099893000e-04 0.0000e+00 1.0000e+00
<vert_displacement>
127.62038117748418
</vert_displacement>
</event>
<event>
 4   1200 +8.5212000e+10 8.20209300e-03 7.81665300e-03            nan
       50 -1    0    0    0    0 +5.2447228566e-03 +7.6567263474e-03 +7.8418040745e+00 7.8418111563e+00 4.9935713700e-03 0.0000e+00 0.0000e+00
       11 -1    0    0    0    0 +9.7457618440e-20 +1.4227754931e-19 +1.4571666993e-16 5.1100000000e-04 5.1099893000e-04 0.0000e+00 1.0000e+00
       50  1    1    2    0    0 +7.7893050831e-03 +1.6393429251e-03 +7.8001564143e+00 7.8001620742e+00 4.9935713700e-03 0.0000e+00 0.0000e+00
       11  1    1    2    0    0 -2.5445822265e-03 +6.0173834223e-03 +4.1647660207e-02 4.2160082099e-02 5.1099893000e-04 0.0000e+00 1.0000e+00
<vert_displacement>
75.052060594284285
</vert_displacement>
</event>
<event>
 4   1200 +8.5212000e+10 2.11557600e-02 7.81665300e-03            nan
       50 -1    0    0    0    0 -4.6668202363e-03 +8.3584981963e-03 +4.9737527017e+00 4.9737644211e+00 4.9935713700e-03 0.0000e+00 0.0000e+00
       11 -1    0    0    0    0 -3.8413009945e-19 +6.8799537604e-19 +4.0939398202e-16 5.1100000000e-04 5.1099893000e-04 0.0000e+00 1.0000e+00
       50  1    1    2    0    0 +2.9038182202e-03 +2.6870061051e-02 +4.5182366329e+00 4.5183202231e+00 4.9935713700e-03 0.0000e+00 0.0000e+00
       11  1    1    2    0    0 -7.5706384565e-03 -1.8511562855e-02 +4.5551606882e-01 4.5595519802e-01 5.1099893000e-04 0.0000e+00 1.0000e+00
<vert_displacement>
425.07804689762190
</vert_displacement>
</event>
<event>
 4   1200 +8.5212000e+10 4.99759000e-02 7.81665300e-03            nan
       50 -1    0    0    0    0 -3.3074330150e-03 +3.7410972626e-03 +1.8886602765e+01 1.8886604086e+01 4.9935713700e-03 0.0000e+00 0.0000e+00
       11 -1    0    0    0    0 -6.1243214776e-19 +6.9273307159e-19 +3.4972024053e-15 5.1100000000e-04 5.1099893000e-04 0.0000e+00 1.0000e+00
       50  1    1    2    0    0 +3.9383821767e-02 +2.9491516018e-02 +1.6036448607e+01 1.6036524863e+01 4.9935713700e-03 0.0000e+00 0.0000e+00
       11  1    1    2    0    0 -4.2691254782e-02 -2.5750418755e-02 +2.8501541585e+00 2.8505902223e+00 5.1099893000e-04 0.0000e+00 1.0000e+00
<vert_displacement>
167.55338598802410
</vert_displacement>
</event>
<event>
 4   1200 +8.5212000e+10 1.25336600e-02 7.81665300e-03            nan
       50 -1    0    0    0    0 -2.1346470468e-02 +6.5096116188e-03 +6.9797581813e+00 6.9797956454e+00 4.9935713700e-03 0.0000e+00 0.0000e+00
       11 -1    0    0    0    0 +9.3374094688e-19 -2.8474454014e-19 -3.0530977115e-16 5.1100000000e-04 5.1099893000e-04 0.0000e+00 1.0000e+00
       50  1    1    2    0    0 -2.4490843788e-02 +1.7321549076e-02 +6.8479181424e+00 6.8479856643e+00 4.9935713700e-03 0.0000e+00 0.0000e+00
       11  1    1    2    0    0 +3.1443733208e-03 -1.0811937457e-02 +1.3184003889e-01 1.3232098114e-01 5.1099893000e-04 0.0000e+00 1.0000e+00
<vert_displacement>
74.493677225641804
</vert_displacement>
</event>
<event>
 4   1200 +8.5212000e+10 1.55471900e-02 7.81665300e-03            nan
       50 -1    0    0    0    0 -5.4362112595e-02 +9.8074233614e-02 +4.7911128543e+01 4.7911260023e+01 4.9935713700e-03 0.0000e+00 0.0000e+00
       11 -1    0    0    0    0 +5.0388213016e-19 -9.0904954551e-19 -4.4408799357e-16 5.1100000000e-04 5.1099893000e-04 0.0000e+00 1.0000e+00
       50  1    1    2    0    0 -4.1001124372e-02 +1.0432127030e-01 +4.7698067323e+01 4.7698199287e+01 4.9935713700e-03 0.0000e+00 0.0000e+00
       11  1    1    2    0    0 -1.3360988224e-02 -6.2470366902e-03 +2.1306122070e-01 2.1357173586e-01 5.1099893000e-04 0.0000e+00 1.0000e+00
<vert_displacement>
67.516735337171397
</vert_displacement>
</event>
<event>
 4   1200 +8.5212000e+10 7.57871800e-03 7.81665300e-03            nan
       50 -1    0    0    0    0 +3.4398143868e-02 -1.2184499428e-03 +1.1426840751e+01 1.1426893681e+01 4.9935713700e-03 0.0000e+00 0.0000e+00
       11 -1    0    0    0    0 +1.7337050051e-18 -6.1411242782e-20 +5.7592558128e-16 5.1100000000e-04 5.1099893000e-04 0.0000e+00 1.0000e+00
       50  1    1    2    0    0 +3.6489312037e-02 -6.4797838122e-03 +1.1394941557e+01 1.1395002917e+01 4.9935713700e-03 0.0000e+00 0.0000e+00
       11  1    1    2    0    0 -2.0911681681e-03 +5.2613338693e-03 +3.1899193448e-02 3.2401763547e-02 5.1099893000e-04 0.0000e+00 1.0000e+00
<vert_displacement>
18.067434438232873
</vert_displacement>
</event>
<event>
 4   1200 +8.5212000e+10 4.12764200e-02 7.81665300e-03            nan
       50 -1    0    0    0    0 +2.7419856533e-02 -2.9780327483e-02 +1.2536064788e+01 1.2536131143e+01 4.9935713700e-03 0.0000e+00 0.0000e+00
       11 -1    0    0    0    0 -2.1703409787e-18 +2.3571773621e-18 -9.9225665488e-16 5.1100000000e-04 5.1099893000e-04 0.0000e+00 1.0000e+00
       50  1    1    2    0    0 +6.3393598338e-02 -1.7382010141e-02 +1.0590879780e+01 1.0591084946e+01 4.9935713700e-03 0.0000e+00 0.0000e+00
       11  1    1    2    0    0 -3.5973741805e-02 -1.2398317342e-02 +1.9451850082e+00 1.9455571967e+00 5.1099893000e-04 0.0000e+00 1.0000e+00
<vert_displacement>
154.17219613272655
</vert_displacement>
</event>
<event>
 4   1200 +8.5212000e+10 1.86740400e-02 7.81665300e-03            nan
       50 -1    0    0    0    0 +1.2144557207e-02 -2.5845505258e-02 +1.8811860946e+01 1.8811883284e+01 4.9935713700e-03 0.0000e+00 0.0000e+00
       11 -1    0    0    0    0 +1.0482274521e-18 -2.2307909348e-18 +1.6236993027e-15 5.1100000000e-04 5.1099893000e-04 0.0000e+00 1.0000e+00
       50  1    1    2    0    0 -1.6585379423e-03 -1.3614519233e-02 +1.8489532904e+01 1.8489538665e+01 4.9935713700e-03 0.0000e+00 0.0000e+00
       11  1    1    2    0    0 +1.3803095150e-02 -1.2230986025e-02 +3.2232804259e-01 3.2285561884e-01 5.1099893000e-04 0.0000e+00 1.0000e+00
<vert_displacement>
26.969745164152883
</vert_displacement>
</event>
<event>
 4   1200 +8.5212000e+10 9.60896500e-03 7.81665300e-03            nan
       50 -1    0    0    0    0 +1.1654623979e-01 -1.6527763427e-03 +3.7408062288e+01 3.7408244210e+01 4.9935713700e-03 0.0000e+00 0.0000e+00
       11 -1    0    0    0    0 -4.3236565472e-19 +6.1315039148e-21 -1.3877720442e-16 5.1100000000e-04 5.1099893000e-04 0.0000e+00 1.0000e+00
       50  1    1    2    0    0 +1.1780096342e-01 -9.7284238234e-03 +3.7341994412e+01 3.7342181823e+01 4.9935713700e-03 0.0000e+00 0.0000e+00
       11  1    1    2    0    0 -1.2547236370e-03 +8.0756474807e-03 +6.6067876587e-02 6.6573386952e-02 5.1099893000e-04 0.0000e+00 1.0000e+00
<vert_displacement>
98.512107006940170
</vert_displacement>
</event>
<event>
 4   1200 +8.5212000e+10 2.02879600e-02 7.81665300e-03            nan
       50 -1    0    0    0    0 -1.4569805075e-02 -5.6779958745e-03 +7.4837735665e+00 7.4837915690e+00 4.9935713700e-03 0.0000e+00 0.0000e+00
       11 -1    0    0    0    0 +0.0000000000e+00 -0.0000000000e+00 +0.0000000000e+00 5.1100000000e-04 5.1099893000e-04 0.0000e+00 1.0000e+00
       50  1    1    2    0    0 -3.3114923834e-02 -1.7320990463e-03 +7.0839451619e+00 7.0840245335e+00 4.9935713700e-03 0.0000e+00 0.0000e+00
       11  1    1    2    0    0 +1.8545118759e-02 -3.9458968282e-03 +3.9982840457e-01 4.0027803556e-01 5.1099893000e-04 0.0000e+00 1.0000e+00
<vert_displacement>
211.46646110038736
</vert_displacement>
</event>
<event>
 4   1200 +8.5212000e+10 1.83313200e-02 7.81665300e-03            nan
       50 -1    0    0    0    0 +1.9684263932e-03 -2.8800923035e-03 +2.7053014936e+00 2.7053083515e+00 4.9935713700e-03 0.0000e+00 0.0000e+00
       11 -1    0    0    0    0 +1.7671012645e-19 -2.5855245434e-19 +2.4286108472e-16 5.1100000000e-04 5.1099893000e-04 0.0000e+00 -1.0000e+00
       50  1    1    2    0    0 -1.0937745654e-02 -1.4797291479e-02 +2.3550972802e+00 2.3551744583e+00 4.9935713700e-03 0.0000e+00 0.0000e+00
       11  1    1    2    0    0 +1.2906172047e-02 +1.1917199175e-02 +3.5020421341e-01 3.5064489319e-01 5.1099893000e-04 0.0000e+00 -1.0000e+00
<vert_displacement>
8.8918711412285401
</vert_displacement>
</event>
<event>
 4   1200 +8.5212000e+10 2.75731100e-02 7.81665300e-03            nan
       50 -1    0    0    0    0 -2.3273311551e-02 +2.0498183085e-02 +1.5663773281e+01 1.5663804779e+01 4.9935713700e-03 0.0000e+00 0.0000e+00
       11 -1    0    0    0    0 -1.0103626107e-18 +8.8988615697e-19 +6.8001026971e-16 5.1100000000e-04 5.1099893000e-04 0.0000e+00 1.0000e+00
       50  1    1    2    0    0 -2.0540205479e-02 -7.5605792628e-03 +1.4907725220e+01 1.4907742124e+01 4.9935713700e-03 0.0000e+00 0.0000e+00
       11  1    1    2    0    0 -2.7331060726e-03 +2.8058762348e-02 +7.5604806063e-01 7.5657365479e-01 5.1099893000e-04 0.0000e+00 1.0000e+00
<vert_displacement>
424.92693504663998
</vert_displacement>
</event>
</LesHouchesEvents>
