<LesHouchesEvents version="3.0">
<header>
<!--
#*********************************************************************
#                                                                    *
#                        MadGraph5_aMC@NLO                           *
#                                                                    *
#                           Going Beyond                             *
#                                                                    *
#                   http://madgraph.hep.uiuc.edu                     *
#                   http://madgraph.phys.ucl.ac.be                   *
#                   http://amcatnlo.cern.ch                          *
#                                                                    *
#                     The MadGraph5_aMC@NLO team                     *
#                                                                    *
#....................................................................*
#                                                                    *
# This file contains all the information necessary to reproduce      *
# the events generated:                                              *
#                                                                    *
# 1. software version                                                *
# 2. proc_card          : code generation info including model       *
# 3. param_card         : model primary parameters in the LH format  *
# 4. run_card           : running parameters (collider and cuts)     *
# 5. pythia_card        : present only if pythia has been run        *
# 6. pgs_card           : present only if pgs has been run           *
# 7. delphes_cards      : present only if delphes has been run       *
#                                                                    *
#                                                                    *
#*********************************************************************
-->
<MGVersion>
#2.6.4
</MGVersion>
<MG5ProcCard>
<![CDATA[
#************************************************************
#*                     MadGraph5_aMC@NLO                    *
#*                                                          *
#*                *                       *                 *
#*                  *        * *        *                   *
#*                    * * * * 5 * * * *                     *
#*                  *        * *        *                   *
#*                *                       *                 *
#*                                                          *
#*                                                          *
#*         VERSION 2.6.4                 2018-11-09         *
#*                                                          *
#*    The MadGraph5_aMC@NLO Development Team - Find us at   *
#*    https://server06.fynu.ucl.ac.be/projects/madgraph     *
#*                                                          *
#************************************************************
#*                                                          *
#*               Command File for MadGraph5_aMC@NLO         *
#*                                                          *
#*     run as ./bin/mg5_aMC  filename                       *
#*                                                          *
#************************************************************
set default_unset_couplings 99
set group_subprocesses Auto
set ignore_six_quark_processes False
set loop_optimized_output True
set loop_color_flows False
set gauge unitary
set complex_mass_scheme False
set max_npoint_for_channel 0
import model Darkphoton --modelname
define  e- = e1
define  e+ = e1bar
define mmm = a h1 h2 z
import_events decay Fluxes/Eta_Flux.hepmc
decay etam >  a chi chic
define darkmatter chi
add process interaction @electron /mmm
output preliminary_results/DP_DP_2_electron_machado_eta
]]>
</MG5ProcCard>
<MGProcCard>
<![CDATA[
#*********************************************************************
#                        MadGraph/MadEvent                           *
#                   http://madgraph.hep.uiuc.edu                     *
#                                                                    *
#                          proc_card.dat                             *
#*********************************************************************
#                                                                    *
#            This Files is generated by MADGRAPH 5                   *
#                                                                    *
# WARNING: This Files is generated for MADEVENT (compatibility issue)*
#          This files is NOT a valid MG4 proc_card.dat               *
#          Running this in MG4 will NEVER reproduce the result of MG5*
#                                                                    *
#*********************************************************************
#*********************************************************************
# Process(es) requested : mg2 input                                  *
#*********************************************************************
# Begin PROCESS # This is TAG. Do not modify this line
chi e- > chi e- /mmm @1200           #Process
# Be carefull the coupling are here in MG5 convention
          
end_coup           # End the couplings input

done               # this tells MG there are no more procs
# End PROCESS  # This is TAG. Do not modify this line
#*********************************************************************
# Model information                                                  *
#*********************************************************************
# Begin MODEL  # This is TAG. Do not modify this line
Darkphoton
# End   MODEL  # This is TAG. Do not modify this line
#*********************************************************************
# Start multiparticle definitions                                    *
#*********************************************************************
# Begin MULTIPARTICLES # This is TAG. Do not modify this line

# End  MULTIPARTICLES # This is TAG. Do not modify this line
]]>
</MGProcCard>
<MGRunCard>
<![CDATA[
#*********************************************************************
#                       MadGraph5_aMC@NLO                            *
#                                                                    *
#                     run_card.dat MadEvent                          *
#                                                                    *
#  This file is used to set the parameters of the run.               *
#                                                                    *
#  Some notation/conventions:                                        *
#                                                                    *
#   Lines starting with a '# ' are info or comments                  *
#                                                                    *
#   mind the format:   value    = variable     ! comment             *
#                                                                    *
#   To display more options, you can type the command:               *
#      update full_run_card                                          *
#*********************************************************************
#
#*******************                                                 
# Running parameters
#*******************                                                 
#                                                                    
#*********************************************************************
# Tag name for the run (one word)                                    *
#*********************************************************************
  tag_1     = run_tag ! name of the run 
#*********************************************************************
# Number of events and rnd seed                                      *
# Warning: Do not generate more than 1M events in a single run       *
# If you want to run Pythia, avoid more than 50k events in a run.    *
#*********************************************************************
  2625 = nevents ! Number of unweighted events requested 
 21 = iseed   ! rnd seed (0=assigned automatically=default))
#*********************************************************************
# Collider type and energy                                           *
# lpp: 0=No PDF, 1=proton, -1=antiproton, 2=photon from proton,      *
#                                         3=photon from electron     *
#*********************************************************************
     9        = lpp1    ! beam 1 type 
     0        = lpp2    ! beam 2 type
     66.861998342     = ebeam1  ! beam 1 total energy in GeV
     0.000511     = ebeam2  ! beam 2 total energy in GeV
#*********************************************************************
# PDF CHOICE: this automatically fixes also alpha_s and its evol.    *
#*********************************************************************
     nn23lo1    = pdlabel     ! PDF set                                     
     230000    = lhaid     ! if pdlabel=lhapdf, this is the lhapdf number
#*********************************************************************
# Renormalization and factorization scales                           *
#*********************************************************************
 False = fixed_ren_scale  ! if .true. use fixed ren scale
 False        = fixed_fac_scale  ! if .true. use fixed fac scale
 91.188  = scale            ! fixed ren scale
 91.188  = dsqrt_q2fact1    ! fixed fact scale for pdf1
 91.188  = dsqrt_q2fact2    ! fixed fact scale for pdf2
 -1 = dynamical_scale_choice ! Choose one of the preselected dynamical choices
 1.0  = scalefact        ! scale factor for event-by-event scales
#*********************************************************************
# Type and output format
#*********************************************************************
  False     = gridpack  !True = setting up the grid pack
  -1.0 = time_of_flight ! threshold (in mm) below which the invariant livetime is not written (-1 means not written)
  3.0 = lhe_version       ! Change the way clustering information pass to shower.        
  True = clusinfo         ! include clustering tag in output
  average =  event_norm       ! average/sum. Normalization of the weight in the LHEF

#*********************************************************************
# Matching parameter (MLM only)
#*********************************************************************
 0 = ickkw            ! 0 no matching, 1 MLM
 1.0 = alpsfact         ! scale factor for QCD emission vx
 False = chcluster        ! cluster only according to channel diag
 5 = asrwgtflavor     ! highest quark flavor for a_s reweight
 False  = auto_ptj_mjj  ! Automatic setting of ptj and mjj if xqcut >0
                                   ! (turn off for VBF and single top processes) 
 0.0   = xqcut   ! minimum kt jet measure between partons
#*********************************************************************
#
#*********************************************************************
# handling of the helicities:
#  0: sum over all helicities
#  1: importance sampling over helicities
#*********************************************************************
   0  = nhel          ! using helicities importance sampling or not.
#*********************************************************************
# Generation bias, check the wiki page below for more information:   *
#  'cp3.irmp.ucl.ac.be/projects/madgraph/wiki/LOEventGenerationBias' *
#*********************************************************************
 None = bias_module  ! Bias type of bias, [None, ptj_bias, -custom_folder-]
 {} = bias_parameters ! Specifies the parameters of the module.
#
#*******************************                                                 
# Parton level cuts definition *
#*******************************                                     
#                                                                    
#
#*********************************************************************
# BW cutoff (M+/-bwcutoff*Gamma) ! Define on/off-shell for "$$" and decay  
#*********************************************************************
  15.0  = bwcutoff      ! (M+/-bwcutoff*Gamma)
#*********************************************************************
# Apply pt/E/eta/dr/mij/kt_durham cuts on decay products or not
# (note that etmiss/ptll/ptheavy/ht/sorted cuts always apply)
#*********************************************************************
   False  = cut_decays    ! Cut decay products 
#*********************************************************************
# Standard Cuts                                                      *
#*********************************************************************
# Minimum and maximum pt's (for max, -1 means no cut)                *
#*********************************************************************
 0.0  = ptj       ! minimum pt for the jets 
 0.0  = ptb       ! minimum pt for the b 
 0.0  = pta       ! minimum pt for the photons 
 0.0  = ptl       ! minimum pt for the charged leptons 
 0.0  = misset    ! minimum missing Et (sum of neutrino's momenta)
 -1.0  = ptjmax    ! maximum pt for the jets
 -1.0  = ptbmax    ! maximum pt for the b
 -1.0  = ptamax    ! maximum pt for the photons
 -1.0  = ptlmax    ! maximum pt for the charged leptons
 -1.0  = missetmax ! maximum missing Et (sum of neutrino's momenta)
 {} = pt_min_pdg ! pt cut for other particles (use pdg code). Applied on particle and anti-particle
 {}	= pt_max_pdg ! pt cut for other particles (syntax e.g. {6: 100, 25: 50}) 
#*********************************************************************
# Minimum and maximum E's (in the center of mass frame)              *
#*********************************************************************
  0.0  = ej     ! minimum E for the jets 
  0.0  = eb     ! minimum E for the b 
  0.0  = ea     ! minimum E for the photons 
  0.0  = el     ! minimum E for the charged leptons 
  -1.0   = ejmax ! maximum E for the jets
 -1.0   = ebmax ! maximum E for the b
 -1.0   = eamax ! maximum E for the photons
 -1.0   = elmax ! maximum E for the charged leptons
 {} = e_min_pdg ! E cut for other particles (use pdg code). Applied on particle and anti-particle
 {} = e_max_pdg ! E cut for other particles (syntax e.g. {6: 100, 25: 50}) 
#*********************************************************************
# Maximum and minimum absolute rapidity (for max, -1 means no cut)   *
#*********************************************************************
  -1.0 = etaj    ! max rap for the jets 
  -1.0  = etab    ! max rap for the b
 -1.0  = etaa    ! max rap for the photons 
 -1.0  = etal    ! max rap for the charged leptons 
 0.0  = etajmin ! min rap for the jets
 0.0  = etabmin ! min rap for the b
 0.0  = etaamin ! min rap for the photons
 0.0  = etalmin ! main rap for the charged leptons
 {} = eta_min_pdg ! rap cut for other particles (use pdg code). Applied on particle and anti-particle
 {} = eta_max_pdg ! rap cut for other particles (syntax e.g. {6: 2.5, 23: 5})
#*********************************************************************
# Minimum and maximum DeltaR distance                                *
#*********************************************************************
 0.0 = drjj    ! min distance between jets 
 0.0   = drbb    ! min distance between b's 
 0.0 = drll    ! min distance between leptons 
 0.0 = draa    ! min distance between gammas 
 0.0   = drbj    ! min distance between b and jet 
 0.0 = draj    ! min distance between gamma and jet 
 0.0 = drjl    ! min distance between jet and lepton 
 0.0   = drab    ! min distance between gamma and b 
 0.0   = drbl    ! min distance between b and lepton 
 0.0 = dral    ! min distance between gamma and lepton 
 -1.0  = drjjmax ! max distance between jets
 -1.0  = drbbmax ! max distance between b's
 -1.0  = drllmax ! max distance between leptons
 -1.0  = draamax ! max distance between gammas
 -1.0  = drbjmax ! max distance between b and jet
 -1.0  = drajmax ! max distance between gamma and jet
 -1.0  = drjlmax ! max distance between jet and lepton
 -1.0  = drabmax ! max distance between gamma and b
 -1.0  = drblmax ! max distance between b and lepton
 -1.0  = dralmax ! maxdistance between gamma and lepton
#*********************************************************************
# Minimum and maximum invariant mass for pairs                       *
# WARNING: for four lepton final state mmll cut require to have      *
#          different lepton masses for each flavor!                  *           
#*********************************************************************
 0.0   = mmjj    ! min invariant mass of a jet pair 
 0.0   = mmbb    ! min invariant mass of a b pair 
 0.0   = mmaa    ! min invariant mass of gamma gamma pair
 0.0   = mmll    ! min invariant mass of l+l- (same flavour) lepton pair
 -1.0  = mmjjmax ! max invariant mass of a jet pair
 -1.0  = mmbbmax ! max invariant mass of a b pair
 -1.0  = mmaamax ! max invariant mass of gamma gamma pair
 -1.0  = mmllmax ! max invariant mass of l+l- (same flavour) lepton pair
 {} = mxx_min_pdg ! min invariant mass of a pair of particles X/X~ (e.g. {6:250})
 {'default': False} = mxx_only_part_antipart ! if True the invariant mass is applied only 
                       ! to pairs of particle/antiparticle and not to pairs of the same pdg codes.  
#*********************************************************************
# Minimum and maximum invariant mass for all letpons                 *
#*********************************************************************
 0.0   = mmnl    ! min invariant mass for all letpons (l+- and vl) 
 -1.0  = mmnlmax ! max invariant mass for all letpons (l+- and vl) 
#*********************************************************************
# Minimum and maximum pt for 4-momenta sum of leptons                *
#*********************************************************************
 0.0   = ptllmin  ! Minimum pt for 4-momenta sum of leptons(l and vl)
 -1.0  = ptllmax  ! Maximum pt for 4-momenta sum of leptons(l and vl)
#*********************************************************************
# Inclusive cuts                                                     *
#*********************************************************************
 0.0  = ptheavy   ! minimum pt for at least one heavy final state
 0.0  = xptj ! minimum pt for at least one jet  
 0.0  = xptb ! minimum pt for at least one b 
 0.0  = xpta ! minimum pt for at least one photon 
 0.0  = xptl ! minimum pt for at least one charged lepton 
#*********************************************************************
# Control the pt's of the jets sorted by pt                          *
#*********************************************************************
 0.0   = ptj1min ! minimum pt for the leading jet in pt
 0.0   = ptj2min ! minimum pt for the second jet in pt
 0.0   = ptj3min ! minimum pt for the third jet in pt
 0.0   = ptj4min ! minimum pt for the fourth jet in pt
 -1.0  = ptj1max ! maximum pt for the leading jet in pt 
 -1.0  = ptj2max ! maximum pt for the second jet in pt
 -1.0  = ptj3max ! maximum pt for the third jet in pt
 -1.0  = ptj4max ! maximum pt for the fourth jet in pt
 0   = cutuse  ! reject event if fails any (0) / all (1) jet pt cuts
#*********************************************************************
# Control the pt's of leptons sorted by pt                           *
#*********************************************************************
 0.0   = ptl1min ! minimum pt for the leading lepton in pt
 0.0   = ptl2min ! minimum pt for the second lepton in pt
 0.0   = ptl3min ! minimum pt for the third lepton in pt
 0.0   = ptl4min ! minimum pt for the fourth lepton in pt
 -1.0  = ptl1max ! maximum pt for the leading lepton in pt 
 -1.0  = ptl2max ! maximum pt for the second lepton in pt
 -1.0  = ptl3max ! maximum pt for the third lepton in pt
 -1.0  = ptl4max ! maximum pt for the fourth lepton in pt
#*********************************************************************
# Control the Ht(k)=Sum of k leading jets                            *
#*********************************************************************
 0.0   = htjmin ! minimum jet HT=Sum(jet pt)
 -1.0  = htjmax ! maximum jet HT=Sum(jet pt)
 0.0   = ihtmin  !inclusive Ht for all partons (including b)
 -1.0  = ihtmax  !inclusive Ht for all partons (including b)
 0.0   = ht2min ! minimum Ht for the two leading jets
 0.0   = ht3min ! minimum Ht for the three leading jets
 0.0   = ht4min ! minimum Ht for the four leading jets
 -1.0  = ht2max ! maximum Ht for the two leading jets
 -1.0  = ht3max ! maximum Ht for the three leading jets
 -1.0  = ht4max ! maximum Ht for the four leading jets
#***********************************************************************
# Photon-isolation cuts, according to hep-ph/9801442                   *
# When ptgmin=0, all the other parameters are ignored                  *
# When ptgmin>0, pta and draj are not going to be used                 *
#***********************************************************************
 0.0 = ptgmin ! Min photon transverse momentum
 0.4 = R0gamma ! Radius of isolation code
 1.0 = xn ! n parameter of eq.(3.4) in hep-ph/9801442
 1.0 = epsgamma ! epsilon_gamma parameter of eq.(3.4) in hep-ph/9801442
 True = isoEM ! isolate photons from EM energy (photons and leptons)
#*********************************************************************
# WBF cuts                                                           *
#*********************************************************************
 0.0   = xetamin ! minimum rapidity for two jets in the WBF case  
 -1.0   = deltaeta ! minimum rapidity for two jets in the WBF case 
#***********************************************************************
# Turn on either the ktdurham or ptlund cut to activate                *
# CKKW(L) merging with Pythia8 [arXiv:1410.3012, arXiv:1109.4829]      *
#***********************************************************************
 0.0  =  ktdurham        
 0.0   =  dparameter
 0.0  =  ptlund
 21, 1, 2, 3, 4, 5, 6  =  pdgs_for_merging_cut ! PDGs for two cuts above   
#*********************************************************************
# maximal pdg code for quark to be considered as a light jet         *
# (otherwise b cuts are applied)                                     *
#*********************************************************************
 4 = maxjetflavor    ! Maximum jet pdg code
#*********************************************************************
#
#*********************************************************************
# Store info for systematics studies                                 *
# WARNING: Do not use for interference type of computation           *
#*********************************************************************
   False  = use_syst      ! Enable systematics studies
#
systematics = systematics_program ! none, systematics [python], SysCalc [depreceted, C++]
['--mur=0.5,1,2', '--muf=0.5,1,2', '--pdf=errorset'] = systematics_arguments ! see: https://cp3.irmp.ucl.ac.be/projects/madgraph/wiki/Systematics#Systematicspythonmodule
# Syscalc is deprecated but to see the associate options type'update syscalc'
]]>
</MGRunCard>
<slha>
<![CDATA[
# SUSY Les Houches Accord 2 - Darkphoton Spectrum + Decays + Flavor Observables
# SPheno module generated by SARAH
# ----------------------------------------------------------------------
# SPheno v4.0.4  
#   W. Porod, Comput. Phys. Commun. 153 (2003) 275-315, hep-ph/0301101
#   W. Porod, F.Staub, Comput.Phys.Commun.183 (2012) 2458-2469, arXiv:1104.1573
# SARAH: 4.14.1  
#   F. Staub; arXiv:0806.0538 (online manual)
#   F. Staub; Comput. Phys. Commun. 181 (2010) 1077-1086; arXiv:0909.2863
#   F. Staub; Comput. Phys. Commun. 182 (2011)  808-833; arXiv:1002.0840
#   F. Staub; Comput. Phys. Commun. 184 (2013)  1792-1809; arXiv:1207.0906
#   F. Staub; Comput. Phys. Commun. 185 (2014)  1773-1790; arXiv:1309.7223 
# Including the calculation of flavor observables based on the FlavorKit 
#   W. Porod, F. Staub, A. Vicente; Eur.Phys.J. C74 (2014) 8, 2992; arXiv:1405.1434 
# Two-loop masss corrections to Higgs fields based on 
#   M. D. Goodsell, K. Nickel, F. Staub; Eur.Phys.J. C75 (2015) no.6, 290; arXiv:1411.0675 
#   M. D. Goodsell, K. Nickel, F. Staub; Eur.Phys.J. C75 (2015) no.1, 32; arXiv:1503.03098
#   M. D. Goodsell, F. Staub; arXiv:1511.01904
#  
# in case of problems send email to florian.staub@kit.edu and goodsell@lpthe.jussieu.fr 
# ----------------------------------------------------------------------
# Created: 13.02.2022,  00:32
Block SPINFO         # Program information
     1   SPhenoSARAH      # spectrum calculator
     2   v4.0.4      # version number of SPheno
     9   4.14.1      # version number of SARAH
Block MODSEL  # Input parameters
     1  1   #  GUT scale input
     2  1   #  Boundary conditions 
     6  1   #  switching on flavour violation
Block MINPAR  # Input parameters
    1    2.60000000E-01  # LambdaInput
    2    1.00000000E-07  # LPInput
    3    1.32000000E-07  # LCInput
    4    8.22628700E-10  # LCPInput
    5    1.32000000E-07  # LHPInput
    6    8.22628700E-10  # LHCInput
    7    1.00000000E-07  # LEInput
    8    8.22628700E-04  # LPEInput
    9    8.22628700E-04  # LHEInput
   10    1.32000000E-07  # LECInput
   14    0.00000000E+00  # mChi2Input
   15    0.00000000E+00  # mEta2Input
   20    1.12099800E+00  # gXInput
   21    1.49806800E-02  # MZpMass
   22    7.48822800E-06  # g1XInput
   23    0.00000000E+00  # gX1Input
Block gaugeGUT Q= -1.00000000E+00  # (GUT scale)
   1    0.00000000E+00  # g1(Q)
   2    0.00000000E+00  # g2(Q)
   3    0.00000000E+00  # g3(Q)
   4    0.00000000E+00  # gX(Q)
Block SMINPUTS  # SM parameters
         1     1.27932000E+02  # alpha_em^-1(MZ)^MSbar
         2     1.16637000E-05  # G_mu [GeV^-2]
         3     1.18700000E-01  # alpha_s(MZ)^MSbar
         4     9.11887000E+01  # m_Z(pole)
         5     4.18000000E+00  # m_b(m_b), MSbar
         6     1.73500000E+02  # m_t(pole)
         7     1.77669000E+00  # m_tau(pole)
Block GAUGE Q=  1.73500000E+02  # (Renormalization Scale)
   1    3.55690247E-01  # g1
  10    7.48822800E-06  # g1X
   2    6.62798598E-01  # g2
   3    1.22132231E+00  # g3
   4    1.12099800E+00  # gX
  11    0.00000000E+00  # gX1
Block DBS Q=  1.73500000E+02  # (Renormalization Scale)
  11    1.32000000E-07  # LamC
  15    1.00000000E-07  # LamE
  10    1.00000000E-07  # LamP
  18    1.32000000E-07  # LamEC
  14    8.22628700E-10  # LamHC
  17    8.22628700E-04  # LamHE
  13    1.32000000E-07  # LamHP
  12    8.22628700E-10  # LamCP
  16    8.22628700E-04  # LamPE
   2    0.00000000E+00  # mX2
   3    0.00000000E+00  # mE2
   1   -4.00122153E-03  # mPhi2
  20    6.68184957E-03  # vP
  20    6.68184957E-03  # vP
Block IMDBS Q=  1.73500000E+02  # (Renormalization Scale)
  11    0.00000000E+00  # LamC
  15    0.00000000E+00  # LamE
  10    0.00000000E+00  # LamP
  18    0.00000000E+00  # LamEC
  14    0.00000000E+00  # LamHC
  17    0.00000000E+00  # LamHE
  13    0.00000000E+00  # LamHP
  12    0.00000000E+00  # LamCP
  16    0.00000000E+00  # LamPE
   2    0.00000000E+00  # mX2
   3    0.00000000E+00  # mE2
   1   -0.00000000E+00  # mPhi2
Block SM Q=  1.73500000E+02  # (Renormalization Scale)
   2    2.60000000E-01  # Lam
   3   -7.88119392E+03  # mH2
Block IMSM Q=  1.73500000E+02  # (Renormalization Scale)
   2    0.00000000E+00  # Lam
   3   -0.00000000E+00  # mH2
Block HMIX Q=  1.73500000E+02  # (Renormalization Scale)
   3    2.46220569E+02  # v
  10    1.57079633E+00  # betaH
  11    1.37775802E-11  # alphaH
Block ANGLES Q=  1.73500000E+02  # (Renormalization Scale)
  10    9.95497945E-06  # TWp
Block TREEDBS Q=  1.73500000E+02  # (Renormalization Scale)
   1   -4.00122153E-03  # mPhi2
Block TREEIMDBS Q=  1.73500000E+02  # (Renormalization Scale)
   1   -0.00000000E+00  # mPhi2
Block TREESM Q=  1.73500000E+02  # (Renormalization Scale)
   3   -7.88119392E+03  # mH2
Block TREEIMSM Q=  1.73500000E+02  # (Renormalization Scale)
   3   -0.00000000E+00  # mH2
Block LOOPDBS Q=  1.73500000E+02  # (Renormalization Scale)
   1    0.00000000E+00  # mPhi2
Block LOOPIMDBS Q=  1.73500000E+02  # (Renormalization Scale)
   1    0.00000000E+00  # mPhi2
Block LOOPSM Q=  1.73500000E+02  # (Renormalization Scale)
   3    0.00000000E+00  # mH2
Block LOOPIMSM Q=  1.73500000E+02  # (Renormalization Scale)
   3    0.00000000E+00  # mH2
Block Yu Q=  1.73500000E+02  # (Renormalization Scale)
  1  1     1.39897827E-05   # Real(Yu(1,1),dp)
  1  2     3.23582995E-06   # Real(Yu(1,2),dp)
  1  3     4.91802180E-08   # Real(Yu(1,3),dp)
  2  1    -1.64341904E-03   # Real(Yu(2,1),dp)
  2  2     7.10058961E-03   # Real(Yu(2,2),dp)
  2  3     3.00419293E-04   # Real(Yu(2,3),dp)
  3  1     5.92627039E-03   # Real(Yu(3,1),dp)
  3  2    -4.07545835E-02   # Real(Yu(3,2),dp)
  3  3     9.95678124E-01   # Real(Yu(3,3),dp)
Block IMYu Q=  1.73500000E+02  # (Renormalization Scale)
  1  1     0.00000000E+00   # Aimag(Yu(1,1))
  1  2     0.00000000E+00   # Aimag(Yu(1,2))
  1  3     0.00000000E+00   # Aimag(Yu(1,3))
  2  1     0.00000000E+00   # Aimag(Yu(2,1))
  2  2     0.00000000E+00   # Aimag(Yu(2,2))
  2  3     0.00000000E+00   # Aimag(Yu(2,3))
  3  1     0.00000000E+00   # Aimag(Yu(3,1))
  3  2     0.00000000E+00   # Aimag(Yu(3,2))
  3  3     0.00000000E+00   # Aimag(Yu(3,3))
Block Yd Q=  1.73500000E+02  # (Renormalization Scale)
  1  1     2.87184285E-05   # Real(Yd(1,1),dp)
  1  2     0.00000000E+00   # Real(Yd(1,2),dp)
  1  3     0.00000000E+00   # Real(Yd(1,3),dp)
  2  1     0.00000000E+00   # Real(Yd(2,1),dp)
  2  2     5.45650142E-04   # Real(Yd(2,2),dp)
  2  3     0.00000000E+00   # Real(Yd(2,3),dp)
  3  1     0.00000000E+00   # Real(Yd(3,1),dp)
  3  2     0.00000000E+00   # Real(Yd(3,2),dp)
  3  3     2.40086062E-02   # Real(Yd(3,3),dp)
Block IMYd Q=  1.73500000E+02  # (Renormalization Scale)
  1  1     0.00000000E+00   # Aimag(Yd(1,1))
  1  2     0.00000000E+00   # Aimag(Yd(1,2))
  1  3     0.00000000E+00   # Aimag(Yd(1,3))
  2  1     0.00000000E+00   # Aimag(Yd(2,1))
  2  2     0.00000000E+00   # Aimag(Yd(2,2))
  2  3     0.00000000E+00   # Aimag(Yd(2,3))
  3  1     0.00000000E+00   # Aimag(Yd(3,1))
  3  2     0.00000000E+00   # Aimag(Yd(3,2))
  3  3     0.00000000E+00   # Aimag(Yd(3,3))
Block Ye Q=  1.73500000E+02  # (Renormalization Scale)
  1  1     2.93501725E-06   # Real(Ye(1,1),dp)
  1  2     0.00000000E+00   # Real(Ye(1,2),dp)
  1  3     0.00000000E+00   # Real(Ye(1,3),dp)
  2  1     0.00000000E+00   # Real(Ye(2,1),dp)
  2  2     6.06868478E-04   # Real(Ye(2,2),dp)
  2  3     0.00000000E+00   # Real(Ye(2,3),dp)
  3  1     0.00000000E+00   # Real(Ye(3,1),dp)
  3  2     0.00000000E+00   # Real(Ye(3,2),dp)
  3  3     1.02047490E-02   # Real(Ye(3,3),dp)
Block IMYe Q=  1.73500000E+02  # (Renormalization Scale)
  1  1     0.00000000E+00   # Aimag(Ye(1,1))
  1  2     0.00000000E+00   # Aimag(Ye(1,2))
  1  3     0.00000000E+00   # Aimag(Ye(1,3))
  2  1     0.00000000E+00   # Aimag(Ye(2,1))
  2  2     0.00000000E+00   # Aimag(Ye(2,2))
  2  3     0.00000000E+00   # Aimag(Ye(2,3))
  3  1     0.00000000E+00   # Aimag(Ye(3,1))
  3  2     0.00000000E+00   # Aimag(Ye(3,2))
  3  3     0.00000000E+00   # Aimag(Ye(3,3))
Block MASS  # Mass spectrum
#   PDG code      mass          particle
        35     1.00000000E-05  # hh_1
        25     1.25548349E+02  # hh_2
        22     0.00000000E+00  # VP
        23     9.11887000E+01  # VZ
        31     1.49806799E-02  # VZp
        21     0.00000000E+00  # VG
        24     8.03497269E+01  # VWp
        50     4.99357137E-03  # chi
        51     4.99357137E+00  # eta
         1     5.00000000E-03  # Fd_1
         3     9.50000000E-02  # Fd_2
         5     4.18000000E+00  # Fd_3
         2     2.50000000E-03  # Fu_1
         4     1.27000000E+00  # Fu_2
         6     1.73500000E+02  # Fu_3
        11     5.10998930E-04  # Fe_1
        13     1.05658372E-01  # Fe_2
        15     1.77669000E+00  # Fe_3
        12     0.00000000E+00  # Fv_1
        14     0.00000000E+00  # Fv_2
        16     0.00000000E+00  # Fv_3
Block SCALARMIX Q=  1.73500000E+02  # ()
  1  1     1.37775802E-11   # ZH(1,1)
  1  2    -1.00000000E+00   # ZH(1,2)
  2  1    -1.00000000E+00   # ZH(2,1)
  2  2    -1.37775802E-11   # ZH(2,2)
Block PSEUDOSCALARMIX Q=  1.73500000E+02  # ()
  1  1    -1.00000000E+00   # ZA(1,1)
  1  2    -1.61042262E-09   # ZA(1,2)
  2  1     1.61042262E-09   # ZA(2,1)
  2  2    -1.00000000E+00   # ZA(2,2)
Block UDLMIX Q=  1.73500000E+02  # ()
  1  1     1.00000000E+00   # Real(ZDL(1,1),dp)
  1  2     0.00000000E+00   # Real(ZDL(1,2),dp)
  1  3     0.00000000E+00   # Real(ZDL(1,3),dp)
  2  1     0.00000000E+00   # Real(ZDL(2,1),dp)
  2  2     1.00000000E+00   # Real(ZDL(2,2),dp)
  2  3     0.00000000E+00   # Real(ZDL(2,3),dp)
  3  1     0.00000000E+00   # Real(ZDL(3,1),dp)
  3  2     0.00000000E+00   # Real(ZDL(3,2),dp)
  3  3     1.00000000E+00   # Real(ZDL(3,3),dp)
Block IMUDLMIX Q=  1.73500000E+02  # ()
  1  1     0.00000000E+00   # Aimag(ZDL(1,1))
  1  2     0.00000000E+00   # Aimag(ZDL(1,2))
  1  3     0.00000000E+00   # Aimag(ZDL(1,3))
  2  1     0.00000000E+00   # Aimag(ZDL(2,1))
  2  2     0.00000000E+00   # Aimag(ZDL(2,2))
  2  3     0.00000000E+00   # Aimag(ZDL(2,3))
  3  1     0.00000000E+00   # Aimag(ZDL(3,1))
  3  2     0.00000000E+00   # Aimag(ZDL(3,2))
  3  3     0.00000000E+00   # Aimag(ZDL(3,3))
Block UDRMIX Q=  1.73500000E+02  # ()
  1  1     1.00000000E+00   # Real(ZDR(1,1),dp)
  1  2     0.00000000E+00   # Real(ZDR(1,2),dp)
  1  3     0.00000000E+00   # Real(ZDR(1,3),dp)
  2  1     0.00000000E+00   # Real(ZDR(2,1),dp)
  2  2     1.00000000E+00   # Real(ZDR(2,2),dp)
  2  3     0.00000000E+00   # Real(ZDR(2,3),dp)
  3  1     0.00000000E+00   # Real(ZDR(3,1),dp)
  3  2     0.00000000E+00   # Real(ZDR(3,2),dp)
  3  3     1.00000000E+00   # Real(ZDR(3,3),dp)
Block IMUDRMIX Q=  1.73500000E+02  # ()
  1  1     0.00000000E+00   # Aimag(ZDR(1,1))
  1  2     0.00000000E+00   # Aimag(ZDR(1,2))
  1  3     0.00000000E+00   # Aimag(ZDR(1,3))
  2  1     0.00000000E+00   # Aimag(ZDR(2,1))
  2  2     0.00000000E+00   # Aimag(ZDR(2,2))
  2  3     0.00000000E+00   # Aimag(ZDR(2,3))
  3  1     0.00000000E+00   # Aimag(ZDR(3,1))
  3  2     0.00000000E+00   # Aimag(ZDR(3,2))
  3  3     0.00000000E+00   # Aimag(ZDR(3,3))
Block UULMIX Q=  1.73500000E+02  # ()
  1  1    -9.74272160E-01   # Real(ZUL(1,1),dp)
  1  2    -2.25348678E-01   # Real(ZUL(1,2),dp)
  1  3    -3.42499367E-03   # Real(ZUL(1,3),dp)
  2  1     2.25296231E-01   # Real(ZUL(2,1),dp)
  2  2    -9.73419462E-01   # Real(ZUL(2,2),dp)
  2  3    -4.11844653E-02   # Real(ZUL(2,3),dp)
  3  1    -5.94690932E-03   # Real(ZUL(3,1),dp)
  3  2     4.08965161E-02   # Real(ZUL(3,2),dp)
  3  3    -9.99145690E-01   # Real(ZUL(3,3),dp)
Block IMUULMIX Q=  1.73500000E+02  # ()
  1  1     0.00000000E+00   # Aimag(ZUL(1,1))
  1  2     0.00000000E+00   # Aimag(ZUL(1,2))
  1  3     0.00000000E+00   # Aimag(ZUL(1,3))
  2  1    -0.00000000E+00   # Aimag(ZUL(2,1))
  2  2     0.00000000E+00   # Aimag(ZUL(2,2))
  2  3     0.00000000E+00   # Aimag(ZUL(2,3))
  3  1     0.00000000E+00   # Aimag(ZUL(3,1))
  3  2     0.00000000E+00   # Aimag(ZUL(3,2))
  3  3     0.00000000E+00   # Aimag(ZUL(3,3))
Block UURMIX Q=  1.73500000E+02  # ()
  1  1     1.00000000E+00   # Real(ZUR(1,1),dp)
  1  2     2.16840434E-19   # Real(ZUR(1,2),dp)
  1  3     0.00000000E+00   # Real(ZUR(1,3),dp)
  2  1    -2.16840434E-19   # Real(ZUR(2,1),dp)
  2  2     1.00000000E+00   # Real(ZUR(2,2),dp)
  2  3    -0.00000000E+00   # Real(ZUR(2,3),dp)
  3  1     0.00000000E+00   # Real(ZUR(3,1),dp)
  3  2     0.00000000E+00   # Real(ZUR(3,2),dp)
  3  3     1.00000000E+00   # Real(ZUR(3,3),dp)
Block IMUURMIX Q=  1.73500000E+02  # ()
  1  1     0.00000000E+00   # Aimag(ZUR(1,1))
  1  2     0.00000000E+00   # Aimag(ZUR(1,2))
  1  3     0.00000000E+00   # Aimag(ZUR(1,3))
  2  1     0.00000000E+00   # Aimag(ZUR(2,1))
  2  2     0.00000000E+00   # Aimag(ZUR(2,2))
  2  3     0.00000000E+00   # Aimag(ZUR(2,3))
  3  1     0.00000000E+00   # Aimag(ZUR(3,1))
  3  2     0.00000000E+00   # Aimag(ZUR(3,2))
  3  3     0.00000000E+00   # Aimag(ZUR(3,3))
Block UELMIX Q=  1.73500000E+02  # ()
  1  1     1.00000000E+00   # Real(ZEL(1,1),dp)
  1  2     0.00000000E+00   # Real(ZEL(1,2),dp)
  1  3     0.00000000E+00   # Real(ZEL(1,3),dp)
  2  1     0.00000000E+00   # Real(ZEL(2,1),dp)
  2  2     1.00000000E+00   # Real(ZEL(2,2),dp)
  2  3     0.00000000E+00   # Real(ZEL(2,3),dp)
  3  1     0.00000000E+00   # Real(ZEL(3,1),dp)
  3  2     0.00000000E+00   # Real(ZEL(3,2),dp)
  3  3     1.00000000E+00   # Real(ZEL(3,3),dp)
Block IMUELMIX Q=  1.73500000E+02  # ()
  1  1     0.00000000E+00   # Aimag(ZEL(1,1))
  1  2     0.00000000E+00   # Aimag(ZEL(1,2))
  1  3     0.00000000E+00   # Aimag(ZEL(1,3))
  2  1     0.00000000E+00   # Aimag(ZEL(2,1))
  2  2     0.00000000E+00   # Aimag(ZEL(2,2))
  2  3     0.00000000E+00   # Aimag(ZEL(2,3))
  3  1     0.00000000E+00   # Aimag(ZEL(3,1))
  3  2     0.00000000E+00   # Aimag(ZEL(3,2))
  3  3     0.00000000E+00   # Aimag(ZEL(3,3))
Block UERMIX Q=  1.73500000E+02  # ()
  1  1     1.00000000E+00   # Real(ZER(1,1),dp)
  1  2     0.00000000E+00   # Real(ZER(1,2),dp)
  1  3     0.00000000E+00   # Real(ZER(1,3),dp)
  2  1     0.00000000E+00   # Real(ZER(2,1),dp)
  2  2     1.00000000E+00   # Real(ZER(2,2),dp)
  2  3     0.00000000E+00   # Real(ZER(2,3),dp)
  3  1     0.00000000E+00   # Real(ZER(3,1),dp)
  3  2     0.00000000E+00   # Real(ZER(3,2),dp)
  3  3     1.00000000E+00   # Real(ZER(3,3),dp)
Block IMUERMIX Q=  1.73500000E+02  # ()
  1  1     0.00000000E+00   # Aimag(ZER(1,1))
  1  2     0.00000000E+00   # Aimag(ZER(1,2))
  1  3     0.00000000E+00   # Aimag(ZER(1,3))
  2  1     0.00000000E+00   # Aimag(ZER(2,1))
  2  2     0.00000000E+00   # Aimag(ZER(2,2))
  2  3     0.00000000E+00   # Aimag(ZER(2,3))
  3  1     0.00000000E+00   # Aimag(ZER(3,1))
  3  2     0.00000000E+00   # Aimag(ZER(3,2))
  3  3     0.00000000E+00   # Aimag(ZER(3,3))
Block SPheno # SPheno internal parameters 
         1    -1.00000000E+00  # ErrorLevel
         2     0.00000000E+00  # SPA_conventions
        11     1.00000000E+00  # Branching ratios
        13     1.00000000E+00  # 3 Body decays
        31    -1.00000000E+00  # GUT scale
        33     1.73500000E+02  # Renormalization scale
        34     1.00000000E-04  # Precision
        35     4.00000000E+01  # Iterations
        38     2.00000000E+00  # RGE level
        40     7.29735257E-03  # Alpha
        41     2.49520000E+00  # Gamma_Z
        42     2.06000000E+00  # Gamma_W
        50     1.00000000E+00  # Rotate negative fermion masses
        51     0.00000000E+00  # Switch to SCKM matrix
        52     1.00000000E+00  # Ignore negative masses
        53     0.00000000E+00  # Ignore negative masses at MZ
        55     0.00000000E+00  # Calculate one loop masses
        56     1.00000000E+00  # Calculate two-loop Higgs masses
        57     0.00000000E+00  # Calculate low energy
        60     1.00000000E+00  # Include kinetic mixing
        65     1.00000000E+00  # Solution of tadpole equation
Block HiggsLHC7 # Higgs production cross section at LHC7 [pb] (rescaled SM values from HXSWG) 
  1        25        1.55567601E+01 # Gluon fusion 
  2        25        1.20289271E+00 # Vector boson fusion 
  3        25        5.32333863E-01 # W-H production 
  4        25        3.12011204E-01 # Z-H production 
  5        25        8.49831703E-02 # t-t-H production 
Block HiggsLHC8 # Higgs production cross section at LHC8 [pb] (rescaled SM values from HXSWG) 
  1        25        1.98075934E+01 # Gluon fusion 
  2        25        1.55136106E+00 # Vector boson fusion 
  3        25        6.83644694E-01 # W-H production 
  4        25        3.89756717E-01 # Z-H production 
  5        25        1.28670563E-01 # t-t-H production 
Block HiggsLHC13 # Higgs production cross section at LHC13 [pb] (rescaled SM values from SusHI 1.5.0) 
  1        25        4.63074275E+01 # Gluon fusion 
Block HiggsLHC14 # Higgs production cross section at LHC14 [pb] (rescaled SM values from SusHI 1.5.0)
  1        25        5.21523776E+01 # Gluon fusion 
Block HiggsFCC100 # Higgs production cross section at FCC-pp [pb] (rescaled SM values from SusHI 1.5.0)
  1        25        7.69754635E+02 # Gluon fusion 
Block EFFHIGGSCOUPLINGS # values of loop-induced couplings 
        35           22           22     0.48630444E-16 # H-Photon-Photon 
        35           21           21     0.39275064E-14 # H-Gluon-Gluon 
        35           22           23     0.00000000E+00 # H-Photon-Z (not yet calculated by SPheno) 
        25           22           22     0.32780978E-04 # H-Photon-Photon 
        25           21           21     0.66115611E-04 # H-Gluon-Gluon 
        25           22           23     0.00000000E+00 # H-Photon-Z (not yet calculated by SPheno) 
Block SPhenoLowEnergy # low energy observables 
       1    0.00000000E+00  # T-parameter (1-loop BSM)
       2    0.00000000E+00  # S-parameter (1-loop BSM)
       3    0.00000000E+00  # U-parameter (1-loop BSM)
      20    0.00000000E+00  # (g-2)_e
      21    0.00000000E+00  # (g-2)_mu
      22    0.00000000E+00  # (g-2)_tau
      23    0.00000000E+00  # EDM(e)
      24    0.00000000E+00  # EDM(mu)
      25    0.00000000E+00  # EDM(tau)
      39    0.00000000E+00  # delta(rho)
Block FlavorKitQFV # quark flavor violating observables 
     200    0.00000000E+00  # BR(B->X_s gamma)
     201    0.00000000E+00  # BR(B->X_s gamma)/BR(B->X_s gamma)_SM
     300    0.00000000E+00  # BR(D->mu nu)
     301    0.00000000E+00  # BR(D->mu nu)/BR(D->mu nu)_SM
     400    0.00000000E+00  # BR(Ds->mu nu)
     401    0.00000000E+00  # BR(Ds->mu nu)/BR(Ds->mu nu)_SM
     402    0.00000000E+00  # BR(Ds->tau nu)
     403    0.00000000E+00  # BR(Ds->tau nu)/BR(Ds->tau nu)_SM
     500    0.00000000E+00  # BR(B->mu nu)
     501    0.00000000E+00  # BR(B->mu nu)/BR(B->mu nu)_SM
     502    0.00000000E+00  # BR(B->tau nu)
     503    0.00000000E+00  # BR(B->tau nu)/BR(B->tau nu)_SM
     600    0.00000000E+00  # BR(K->mu nu)
     601    0.00000000E+00  # BR(K->mu nu)/BR(K->mu nu)_SM
     602    0.00000000E+00  # R_K = BR(K->e nu)/(K->mu nu)
     603    0.00000000E+00  # R_K^SM = BR(K->e nu)_SM/(K->mu nu)_SM
    1900    0.00000000E+00  # Delta(M_Bs)
    1901    0.00000000E+00  # Delta(M_Bs)/Delta(M_Bs)_SM
    1902    0.00000000E+00  # Delta(M_Bd)
    1903    0.00000000E+00  # Delta(M_Bd)/Delta(M_Bd)_SM
    4000    0.00000000E+00  # BR(B^0_d->e e)
    4001    0.00000000E+00  # BR(B^0_d->e e)/BR(B^0_d->e e)_SM
    4002    0.00000000E+00  # BR(B^0_s->e e)
    4003    0.00000000E+00  # BR(B^0_s->e e)/BR(B^0_s->e e)_SM
    4004    0.00000000E+00  # BR(B^0_d->mu mu)
    4005    0.00000000E+00  # BR(B^0_d->mu mu)/BR(B^0_d->mu mu)_SM
    4006    0.00000000E+00  # BR(B^0_s->mu mu)
    4007    0.00000000E+00  # BR(B^0_s->mu mu)/BR(B^0_s->mu mu)_SM
    4008    0.00000000E+00  # BR(B^0_d->tau tau)
    4009    0.00000000E+00  # BR(B^0_d->tau tau)/BR(B^0_d->tau tau)_SM
    4010    0.00000000E+00  # BR(B^0_s->tau tau)
    4011    0.00000000E+00  # BR(B^0_s->tau tau)/BR(B^0_s->tau tau)_SM
    5000    0.00000000E+00  # BR(B-> s e e)
    5001    0.00000000E+00  # BR(B-> s e e)/BR(B-> s e e)_SM
    5002    0.00000000E+00  # BR(B-> s mu mu)
    5003    0.00000000E+00  # BR(B-> s mu mu)/BR(B-> s mu mu)_SM
    6000    0.00000000E+00  # BR(B -> K mu mu)
    6001    0.00000000E+00  # BR(B -> K mu mu)/BR(B -> K mu mu)_SM
    6002    0.00000000E+00  # BR(B -> K mu mu)
    6003    0.00000000E+00  # BR(B -> K mu mu)/BR(B -> K mu mu)_SM
    7000    0.00000000E+00  # BR(B->s nu nu)
    7001    0.00000000E+00  # BR(B->s nu nu)/BR(B->s nu nu)_SM
    7002    0.00000000E+00  # BR(B->D nu nu)
    7003    0.00000000E+00  # BR(B->D nu nu)/BR(B->D nu nu)_SM
    8000    0.00000000E+00  # BR(K^+ -> pi^+ nu nu)
    8001    0.00000000E+00  # BR(K^+ -> pi^+ nu nu)/BR(K^+ -> pi^+ nu nu)_SM
    8002    0.00000000E+00  # BR(K_L -> pi^0 nu nu)
    8003    0.00000000E+00  # BR(K_L -> pi^0 nu nu)/BR(K_L -> pi^0 nu nu)_SM
    8004    0.00000000E+00  # BR(K^0_L -> e mu)
    8005    0.00000000E+00  # BR(K^0_L -> e mu)/BR(K^0_L -> e mu)_SM
    9100    0.00000000E+00  # Delta(M_K)
    9102    0.00000000E+00  # Delta(M_K)/Delta(M_K)_SM
    9103    0.00000000E+00  # epsilon_K
    9104    0.00000000E+00  # epsilon_K/epsilon_K^SM
Block FlavorKitLFV # lepton flavor violating observables 
     701    0.00000000E+00  # BR(mu->e gamma)
     702    0.00000000E+00  # BR(tau->e gamma)
     703    0.00000000E+00  # BR(tau->mu gamma)
     800    0.00000000E+00  # CR(mu-e, Al)
     801    0.00000000E+00  # CR(mu-e, Ti)
     802    0.00000000E+00  # CR(mu-e, Sr)
     803    0.00000000E+00  # CR(mu-e, Sb)
     804    0.00000000E+00  # CR(mu-e, Au)
     805    0.00000000E+00  # CR(mu-e, Pb)
     901    0.00000000E+00  # BR(mu->3e)
     902    0.00000000E+00  # BR(tau->3e)
     903    0.00000000E+00  # BR(tau->3mu)
     904    0.00000000E+00  # BR(tau- -> e- mu+ mu-)
     905    0.00000000E+00  # BR(tau- -> mu- e+ e-)
     906    0.00000000E+00  # BR(tau- -> e+ mu- mu-)
     907    0.00000000E+00  # BR(tau- -> mu+ e- e-)
    1001    0.00000000E+00  # BR(Z->e mu)
    1002    0.00000000E+00  # BR(Z->e tau)
    1003    0.00000000E+00  # BR(Z->mu tau)
    1101    0.00000000E+00  # BR(h->e mu)
    1102    0.00000000E+00  # BR(h->e tau)
    1103    0.00000000E+00  # BR(h->mu tau)
    2001    0.00000000E+00  # BR(tau->e pi)
    2002    0.00000000E+00  # BR(tau->e eta)
    2003    0.00000000E+00  # BR(tau->e eta')
    2004    0.00000000E+00  # BR(tau->mu pi)
    2005    0.00000000E+00  # BR(tau->mu eta)
    2006    0.00000000E+00  # BR(tau->mu eta')
Block FWCOEF Q=  1.60000000E+02  # Wilson coefficients at scale Q 
     0305 4422   00   0     0.00000000E+00    # coeffC7sm
     0305 4422   00   2     0.00000000E+00    # coeffC7
     0305 4322   00   2     0.00000000E+00    # coeffC7p
     0305 4422   00   1     0.00000000E+00    # coeffC7NP
     0305 4322   00   1     0.00000000E+00    # coeffC7pNP
     0305 6421   00   0     0.00000000E+00    # coeffC8sm
     0305 6421   00   2     0.00000000E+00    # coeffC8
     0305 6321   00   2     0.00000000E+00    # coeffC8p
     0305 6421   00   1     0.00000000E+00    # coeffC8NP
     0305 6321   00   1     0.00000000E+00    # coeffC8pNP
 03051111 4133   00   0     0.00000000E+00    # coeffC9eeSM
 03051111 4133   00   2     0.00000000E+00    # coeffC9ee
 03051111 4233   00   2     0.00000000E+00    # coeffC9Pee
 03051111 4133   00   1     0.00000000E+00    # coeffC9eeNP
 03051111 4233   00   1     0.00000000E+00    # coeffC9PeeNP
 03051111 4137   00   0     0.00000000E+00    # coeffC10eeSM
 03051111 4137   00   2     0.00000000E+00    # coeffC10ee
 03051111 4237   00   2     0.00000000E+00    # coeffC10Pee
 03051111 4137   00   1     0.00000000E+00    # coeffC10eeNP
 03051111 4237   00   1     0.00000000E+00    # coeffC10PeeNP
 03051313 4133   00   0     0.00000000E+00    # coeffC9mumuSM
 03051313 4133   00   2     0.00000000E+00    # coeffC9mumu
 03051313 4233   00   2     0.00000000E+00    # coeffC9Pmumu
 03051313 4133   00   1     0.00000000E+00    # coeffC9mumuNP
 03051313 4233   00   1     0.00000000E+00    # coeffC9PmumuNP
 03051313 4137   00   0     0.00000000E+00    # coeffC10mumuSM
 03051313 4137   00   2     0.00000000E+00    # coeffC10mumu
 03051313 4237   00   2     0.00000000E+00    # coeffC10Pmumu
 03051313 4137   00   1     0.00000000E+00    # coeffC10mumuNP
 03051313 4237   00   1     0.00000000E+00    # coeffC10PmumuNP
 03051212 4141   00   0     0.00000000E+00    # coeffCLnu1nu1SM
 03051212 4141   00   2     0.00000000E+00    # coeffCLnu1nu1
 03051212 4241   00   2     0.00000000E+00    # coeffCLPnu1nu1
 03051212 4141   00   1     0.00000000E+00    # coeffCLnu1nu1NP
 03051212 4241   00   1     0.00000000E+00    # coeffCLPnu1nu1NP
 03051414 4141   00   0     0.00000000E+00    # coeffCLnu2nu2SM
 03051414 4141   00   2     0.00000000E+00    # coeffCLnu2nu2
 03051414 4241   00   2     0.00000000E+00    # coeffCLPnu2nu2
 03051414 4141   00   1     0.00000000E+00    # coeffCLnu2nu2NP
 03051414 4241   00   1     0.00000000E+00    # coeffCLPnu2nu2NP
 03051616 4141   00   0     0.00000000E+00    # coeffCLnu3nu3SM
 03051616 4141   00   2     0.00000000E+00    # coeffCLnu3nu3
 03051616 4241   00   2     0.00000000E+00    # coeffCLPnu3nu3
 03051616 4141   00   1     0.00000000E+00    # coeffCLnu3nu3NP
 03051616 4241   00   1     0.00000000E+00    # coeffCLPnu3nu3NP
 03051212 4142   00   0     0.00000000E+00    # coeffCRnu1nu1SM
 03051212 4142   00   2     0.00000000E+00    # coeffCRnu1nu1
 03051212 4242   00   2     0.00000000E+00    # coeffCRPnu1nu1
 03051212 4142   00   1     0.00000000E+00    # coeffCRnu1nu1NP
 03051212 4242   00   1     0.00000000E+00    # coeffCRPnu1nu1NP
 03051414 4142   00   0     0.00000000E+00    # coeffCRnu2nu2SM
 03051414 4142   00   2     0.00000000E+00    # coeffCRnu2nu2
 03051414 4242   00   2     0.00000000E+00    # coeffCRPnu2nu2
 03051414 4142   00   1     0.00000000E+00    # coeffCRnu2nu2NP
 03051414 4242   00   1     0.00000000E+00    # coeffCRPnu2nu2NP
 03051616 4142   00   0     0.00000000E+00    # coeffCRnu3nu3SM
 03051616 4142   00   2     0.00000000E+00    # coeffCRnu3nu3
 03051616 4242   00   2     0.00000000E+00    # coeffCRPnu3nu3
 03051616 4142   00   1     0.00000000E+00    # coeffCRnu3nu3NP
 03051616 4242   00   1     0.00000000E+00    # coeffCRPnu3nu3NP
 01030103 3131   00   2     0.00000000E+00    # coeffKK_SLL
 01030103 3232   00   2     0.00000000E+00    # coeffKK_SRR
 01030103 3132   00   2     0.00000000E+00    # coeffKK_SLR
 01030103 4141   00   2     0.00000000E+00    # coeffKK_VLL
 01030103 4242   00   2     0.00000000E+00    # coeffKK_VRR
 01030103 4142   00   2     0.00000000E+00    # coeffKK_VLR
 01030103 4343   00   2     0.00000000E+00    # coeffKK_TLL
 01030103 4444   00   2     0.00000000E+00    # coeffKK_TRR
 01050105 3131   00   2     0.00000000E+00    # coeffBB_SLL
 01050105 3232   00   2     0.00000000E+00    # coeffBB_SRR
 01050105 3132   00   2     0.00000000E+00    # coeffBB_SLR
 01050105 4141   00   2     0.00000000E+00    # coeffBB_VLL
 01050105 4242   00   2     0.00000000E+00    # coeffBB_VRR
 01050105 4142   00   2     0.00000000E+00    # coeffBB_VLR
 01050105 4343   00   2     0.00000000E+00    # coeffBB_TLL
 01050105 4444   00   2     0.00000000E+00    # coeffBB_TRR
 03050305 3131   00   2     0.00000000E+00    # coeffBsBs_SLL
 03050305 3232   00   2     0.00000000E+00    # coeffBsBs_SRR
 03050305 3132   00   2     0.00000000E+00    # coeffBsBs_SLR
 03050305 4141   00   2     0.00000000E+00    # coeffBsBs_VLL
 03050305 4242   00   2     0.00000000E+00    # coeffBsBs_VRR
 03050305 4142   00   2     0.00000000E+00    # coeffBsBs_VLR
 03050305 4343   00   2     0.00000000E+00    # coeffBsBs_TLL
 03050305 4444   00   2     0.00000000E+00    # coeffBsBs_TRR
 01030103 3131   00   1     0.00000000E+00    # coeffKK_SLLNP
 01030103 3232   00   1     0.00000000E+00    # coeffKK_SRRNP
 01030103 3132   00   1     0.00000000E+00    # coeffKK_SLRNP
 01030103 4141   00   1     0.00000000E+00    # coeffKK_VLLNP
 01030103 4242   00   1     0.00000000E+00    # coeffKK_VRRNP
 01030103 4142   00   1     0.00000000E+00    # coeffKK_VLRNP
 01030103 4343   00   1     0.00000000E+00    # coeffKK_TLLNP
 01030103 4444   00   1     0.00000000E+00    # coeffKK_TRRNP
 01050105 3131   00   1     0.00000000E+00    # coeffBB_SLLNP
 01050105 3232   00   1     0.00000000E+00    # coeffBB_SRRNP
 01050105 3132   00   1     0.00000000E+00    # coeffBB_SLRNP
 01050105 4141   00   1     0.00000000E+00    # coeffBB_VLLNP
 01050105 4242   00   1     0.00000000E+00    # coeffBB_VRRNP
 01050105 4142   00   1     0.00000000E+00    # coeffBB_VLRNP
 01050105 4343   00   1     0.00000000E+00    # coeffBB_TLLNP
 01050105 4444   00   1     0.00000000E+00    # coeffBB_TRRNP
 03050305 3131   00   1     0.00000000E+00    # coeffBsBs_SLLNP
 03050305 3232   00   1     0.00000000E+00    # coeffBsBs_SRRNP
 03050305 3132   00   1     0.00000000E+00    # coeffBsBs_SLRNP
 03050305 4141   00   1     0.00000000E+00    # coeffBsBs_VLLNP
 03050305 4242   00   1     0.00000000E+00    # coeffBsBs_VRRNP
 03050305 4142   00   1     0.00000000E+00    # coeffBsBs_VLRNP
 03050305 4343   00   1     0.00000000E+00    # coeffBsBs_TLLNP
 03050305 4444   00   1     0.00000000E+00    # coeffBsBs_TRRNP
 01030103 3131   00   0     0.00000000E+00    # coeffKK_SLLSM
 01030103 3232   00   0     0.00000000E+00    # coeffKK_SRRSM
 01030103 3132   00   0     0.00000000E+00    # coeffKK_SLRSM
 01030103 4141   00   0     0.00000000E+00    # coeffKK_VLLSM
 01030103 4242   00   0     0.00000000E+00    # coeffKK_VRRSM
 01030103 4142   00   0     0.00000000E+00    # coeffKK_VLRSM
 01030103 4343   00   0     0.00000000E+00    # coeffKK_TLLSM
 01030103 4444   00   0     0.00000000E+00    # coeffKK_TRRSM
 01050105 3131   00   0     0.00000000E+00    # coeffBB_SLLSM
 01050105 3232   00   0     0.00000000E+00    # coeffBB_SRRSM
 01050105 3132   00   0     0.00000000E+00    # coeffBB_SLRSM
 01050105 4141   00   0     0.00000000E+00    # coeffBB_VLLSM
 01050105 4242   00   0     0.00000000E+00    # coeffBB_VRRSM
 01050105 4142   00   0     0.00000000E+00    # coeffBB_VLRSM
 01050105 4343   00   0     0.00000000E+00    # coeffBB_TLLSM
 01050105 4444   00   0     0.00000000E+00    # coeffBB_TRRSM
 03050305 3131   00   0     0.00000000E+00    # coeffBsBs_SLLSM
 03050305 3232   00   0     0.00000000E+00    # coeffBsBs_SRRSM
 03050305 3132   00   0     0.00000000E+00    # coeffBsBs_SLRSM
 03050305 4141   00   0     0.00000000E+00    # coeffBsBs_VLLSM
 03050305 4242   00   0     0.00000000E+00    # coeffBsBs_VRRSM
 03050305 4142   00   0     0.00000000E+00    # coeffBsBs_VLRSM
 03050305 4343   00   0     0.00000000E+00    # coeffBsBs_TLLSM
 03050305 4444   00   0     0.00000000E+00    # coeffBsBs_TRRSM
Block IMFWCOEF Q=  1.60000000E+02  # Im(Wilson coefficients) at scale Q 
     0305 4422   00   0     0.00000000E+00    # coeffC7sm
     0305 4422   00   2     0.00000000E+00    # coeffC7
     0305 4322   00   2     0.00000000E+00    # coeffC7p
     0305 4422   00   1     0.00000000E+00    # coeffC7NP
     0305 4322   00   1     0.00000000E+00    # coeffC7pNP
     0305 6421   00   0     0.00000000E+00    # coeffC8sm
     0305 6421   00   2     0.00000000E+00    # coeffC8
     0305 6321   00   2     0.00000000E+00    # coeffC8p
     0305 6421   00   1     0.00000000E+00    # coeffC8NP
     0305 6321   00   1     0.00000000E+00    # coeffC8pNP
 03051111 4133   00   0     0.00000000E+00    # coeffC9eeSM
 03051111 4133   00   2     0.00000000E+00    # coeffC9ee
 03051111 4233   00   2     0.00000000E+00    # coeffC9Pee
 03051111 4133   00   1     0.00000000E+00    # coeffC9eeNP
 03051111 4233   00   1     0.00000000E+00    # coeffC9PeeNP
 03051111 4137   00   0     0.00000000E+00    # coeffC10eeSM
 03051111 4137   00   2     0.00000000E+00    # coeffC10ee
 03051111 4237   00   2     0.00000000E+00    # coeffC10Pee
 03051111 4137   00   1     0.00000000E+00    # coeffC10eeNP
 03051111 4237   00   1     0.00000000E+00    # coeffC10PeeNP
 03051313 4133   00   0     0.00000000E+00    # coeffC9mumuSM
 03051313 4133   00   2     0.00000000E+00    # coeffC9mumu
 03051313 4233   00   2     0.00000000E+00    # coeffC9Pmumu
 03051313 4133   00   1     0.00000000E+00    # coeffC9mumuNP
 03051313 4233   00   1     0.00000000E+00    # coeffC9PmumuNP
 03051313 4137   00   0     0.00000000E+00    # coeffC10mumuSM
 03051313 4137   00   2     0.00000000E+00    # coeffC10mumu
 03051313 4237   00   2     0.00000000E+00    # coeffC10Pmumu
 03051313 4137   00   1     0.00000000E+00    # coeffC10mumuNP
 03051313 4237   00   1     0.00000000E+00    # coeffC10PmumuNP
 03051212 4141   00   0     0.00000000E+00    # coeffCLnu1nu1SM
 03051212 4141   00   2     0.00000000E+00    # coeffCLnu1nu1
 03051212 4241   00   2     0.00000000E+00    # coeffCLPnu1nu1
 03051212 4141   00   1     0.00000000E+00    # coeffCLnu1nu1NP
 03051212 4241   00   1     0.00000000E+00    # coeffCLPnu1nu1NP
 03051414 4141   00   0     0.00000000E+00    # coeffCLnu2nu2SM
 03051414 4141   00   2     0.00000000E+00    # coeffCLnu2nu2
 03051414 4241   00   2     0.00000000E+00    # coeffCLPnu2nu2
 03051414 4141   00   1     0.00000000E+00    # coeffCLnu2nu2NP
 03051414 4241   00   1     0.00000000E+00    # coeffCLPnu2nu2NP
 03051616 4141   00   0     0.00000000E+00    # coeffCLnu3nu3SM
 03051616 4141   00   2     0.00000000E+00    # coeffCLnu3nu3
 03051616 4241   00   2     0.00000000E+00    # coeffCLPnu3nu3
 03051616 4141   00   1     0.00000000E+00    # coeffCLnu3nu3NP
 03051616 4241   00   1     0.00000000E+00    # coeffCLPnu3nu3NP
 03051212 4142   00   0     0.00000000E+00    # coeffCRnu1nu1SM
 03051212 4142   00   2     0.00000000E+00    # coeffCRnu1nu1
 03051212 4242   00   2     0.00000000E+00    # coeffCRPnu1nu1
 03051212 4142   00   1     0.00000000E+00    # coeffCRnu1nu1NP
 03051212 4242   00   1     0.00000000E+00    # coeffCRPnu1nu1NP
 03051414 4142   00   0     0.00000000E+00    # coeffCRnu2nu2SM
 03051414 4142   00   2     0.00000000E+00    # coeffCRnu2nu2
 03051414 4242   00   2     0.00000000E+00    # coeffCRPnu2nu2
 03051414 4142   00   1     0.00000000E+00    # coeffCRnu2nu2NP
 03051414 4242   00   1     0.00000000E+00    # coeffCRPnu2nu2NP
 03051616 4142   00   0     0.00000000E+00    # coeffCRnu3nu3SM
 03051616 4142   00   2     0.00000000E+00    # coeffCRnu3nu3
 03051616 4242   00   2     0.00000000E+00    # coeffCRPnu3nu3
 03051616 4142   00   1     0.00000000E+00    # coeffCRnu3nu3NP
 03051616 4242   00   1     0.00000000E+00    # coeffCRPnu3nu3NP
 01030103 3131   00   2     0.00000000E+00    # coeffKK_SLL
 01030103 3232   00   2     0.00000000E+00    # coeffKK_SRR
 01030103 3132   00   2     0.00000000E+00    # coeffKK_SLR
 01030103 4141   00   2     0.00000000E+00    # coeffKK_VLL
 01030103 4242   00   2     0.00000000E+00    # coeffKK_VRR
 01030103 4142   00   2     0.00000000E+00    # coeffKK_VLR
 01030103 4343   00   2     0.00000000E+00    # coeffKK_TLL
 01030103 4444   00   2     0.00000000E+00    # coeffKK_TRR
 01050105 3131   00   2     0.00000000E+00    # coeffBB_SLL
 01050105 3232   00   2     0.00000000E+00    # coeffBB_SRR
 01050105 3132   00   2     0.00000000E+00    # coeffBB_SLR
 01050105 4141   00   2     0.00000000E+00    # coeffBB_VLL
 01050105 4242   00   2     0.00000000E+00    # coeffBB_VRR
 01050105 4142   00   2     0.00000000E+00    # coeffBB_VLR
 01050105 4343   00   2     0.00000000E+00    # coeffBB_TLL
 01050105 4444   00   2     0.00000000E+00    # coeffBB_TRR
 03050305 3131   00   2     0.00000000E+00    # coeffBsBs_SLL
 03050305 3232   00   2     0.00000000E+00    # coeffBsBs_SRR
 03050305 3132   00   2     0.00000000E+00    # coeffBsBs_SLR
 03050305 4141   00   2     0.00000000E+00    # coeffBsBs_VLL
 03050305 4242   00   2     0.00000000E+00    # coeffBsBs_VRR
 03050305 4142   00   2     0.00000000E+00    # coeffBsBs_VLR
 03050305 4343   00   2     0.00000000E+00    # coeffBsBs_TLL
 03050305 4444   00   2     0.00000000E+00    # coeffBsBs_TRR
 01030103 3131   00   1     0.00000000E+00    # coeffKK_SLLNP
 01030103 3232   00   1     0.00000000E+00    # coeffKK_SRRNP
 01030103 3132   00   1     0.00000000E+00    # coeffKK_SLRNP
 01030103 4141   00   1     0.00000000E+00    # coeffKK_VLLNP
 01030103 4242   00   1     0.00000000E+00    # coeffKK_VRRNP
 01030103 4142   00   1     0.00000000E+00    # coeffKK_VLRNP
 01030103 4343   00   1     0.00000000E+00    # coeffKK_TLLNP
 01030103 4444   00   1     0.00000000E+00    # coeffKK_TRRNP
 01050105 3131   00   1     0.00000000E+00    # coeffBB_SLLNP
 01050105 3232   00   1     0.00000000E+00    # coeffBB_SRRNP
 01050105 3132   00   1     0.00000000E+00    # coeffBB_SLRNP
 01050105 4141   00   1     0.00000000E+00    # coeffBB_VLLNP
 01050105 4242   00   1     0.00000000E+00    # coeffBB_VRRNP
 01050105 4142   00   1     0.00000000E+00    # coeffBB_VLRNP
 01050105 4343   00   1     0.00000000E+00    # coeffBB_TLLNP
 01050105 4444   00   1     0.00000000E+00    # coeffBB_TRRNP
 03050305 3131   00   1     0.00000000E+00    # coeffBsBs_SLLNP
 03050305 3232   00   1     0.00000000E+00    # coeffBsBs_SRRNP
 03050305 3132   00   1     0.00000000E+00    # coeffBsBs_SLRNP
 03050305 4141   00   1     0.00000000E+00    # coeffBsBs_VLLNP
 03050305 4242   00   1     0.00000000E+00    # coeffBsBs_VRRNP
 03050305 4142   00   1     0.00000000E+00    # coeffBsBs_VLRNP
 03050305 4343   00   1     0.00000000E+00    # coeffBsBs_TLLNP
 03050305 4444   00   1     0.00000000E+00    # coeffBsBs_TRRNP
 01030103 3131   00   0     0.00000000E+00    # coeffKK_SLLSM
 01030103 3232   00   0     0.00000000E+00    # coeffKK_SRRSM
 01030103 3132   00   0     0.00000000E+00    # coeffKK_SLRSM
 01030103 4141   00   0     0.00000000E+00    # coeffKK_VLLSM
 01030103 4242   00   0     0.00000000E+00    # coeffKK_VRRSM
 01030103 4142   00   0     0.00000000E+00    # coeffKK_VLRSM
 01030103 4343   00   0     0.00000000E+00    # coeffKK_TLLSM
 01030103 4444   00   0     0.00000000E+00    # coeffKK_TRRSM
 01050105 3131   00   0     0.00000000E+00    # coeffBB_SLLSM
 01050105 3232   00   0     0.00000000E+00    # coeffBB_SRRSM
 01050105 3132   00   0     0.00000000E+00    # coeffBB_SLRSM
 01050105 4141   00   0     0.00000000E+00    # coeffBB_VLLSM
 01050105 4242   00   0     0.00000000E+00    # coeffBB_VRRSM
 01050105 4142   00   0     0.00000000E+00    # coeffBB_VLRSM
 01050105 4343   00   0     0.00000000E+00    # coeffBB_TLLSM
 01050105 4444   00   0     0.00000000E+00    # coeffBB_TRRSM
 03050305 3131   00   0     0.00000000E+00    # coeffBsBs_SLLSM
 03050305 3232   00   0     0.00000000E+00    # coeffBsBs_SRRSM
 03050305 3132   00   0     0.00000000E+00    # coeffBsBs_SLRSM
 03050305 4141   00   0     0.00000000E+00    # coeffBsBs_VLLSM
 03050305 4242   00   0     0.00000000E+00    # coeffBsBs_VRRSM
 03050305 4142   00   0     0.00000000E+00    # coeffBsBs_VLRSM
 03050305 4343   00   0     0.00000000E+00    # coeffBsBs_TLLSM
 03050305 4444   00   0     0.00000000E+00    # coeffBsBs_TRRSM
DECAY         2     0.00000000E+00   # Fu_1
#    BR                NDA      ID1      ID2
DECAY         4     3.82261015E-13   # Fu_2
#    BR                NDA      ID1      ID2
#    BR                NDA      ID1      ID2       ID3
     3.05502575E-02    3            2         -1          1   # BR(Fu_2 -> Fu_1 Fd_1^* Fd_1 )
     5.45954987E-01    3            2         -1          3   # BR(Fu_2 -> Fu_1 Fd_1^* Fd_2 )
     1.56486313E-03    3            2         -3          1   # BR(Fu_2 -> Fu_1 Fd_2^* Fd_1 )
     2.79270154E-02    3            2         -3          3   # BR(Fu_2 -> Fu_1 Fd_2^* Fd_2 )
     1.07295183E-02    3            1        -11         12   # BR(Fu_2 -> Fd_1 Fe_1^* Fv_1 )
     1.01645236E-02    3            1        -13         14   # BR(Fu_2 -> Fd_1 Fe_2^* Fv_2 )
     1.91744771E-01    3            3        -11         12   # BR(Fu_2 -> Fd_2 Fe_1^* Fv_1 )
     1.81364064E-01    3            3        -13         14   # BR(Fu_2 -> Fd_2 Fe_2^* Fv_2 )
DECAY         6     1.56779572E+00   # Fu_3
#    BR                NDA      ID1      ID2
     1.67597777E-03    2            3         24   # BR(Fu_3 -> Fd_2 VWp )
     9.98288583E-01    2            5         24   # BR(Fu_3 -> Fd_3 VWp )
DECAY        11     0.00000000E+00   # Fe_1
#    BR                NDA      ID1      ID2
DECAY        13     1.21990818E-18   # Fe_2
#    BR                NDA      ID1      ID2
#    BR                NDA      ID1      ID2       ID3
     2.63969808E-01    3           11        -12         14   # BR(Fe_2 -> Fe_1 Fv_1^* Fv_2 )
     7.36026661E-01    3           14         -2          1   # BR(Fe_2 -> Fv_2 Fu_1^* Fd_1 )
DECAY        15     2.16913555E-12   # Fe_3
#    BR                NDA      ID1      ID2
#    BR                NDA      ID1      ID2       ID3
     1.99664865E-01    3           11        -12         16   # BR(Fe_3 -> Fe_1 Fv_1^* Fv_3 )
     1.94368619E-01    3           13        -14         16   # BR(Fe_3 -> Fe_2 Fv_2^* Fv_3 )
     5.68537963E-01    3           16         -2          1   # BR(Fe_3 -> Fv_3 Fu_1^* Fd_1 )
     2.97768355E-02    3           16         -2          3   # BR(Fe_3 -> Fv_3 Fu_1^* Fd_2 )
     4.57258365E-04    3           16         -4          1   # BR(Fe_3 -> Fv_3 Fu_2^* Fd_1 )
     7.19445852E-03    3           16         -4          3   # BR(Fe_3 -> Fv_3 Fu_2^* Fd_2 )
DECAY         1     9.45701873E-27   # Fd_1
#    BR                NDA      ID1      ID2
#    BR                NDA      ID1      ID2       ID3
     1.00000000E+00    3            2        -12         11   # BR(Fd_1 -> Fu_1 Fv_1^* Fe_1 )
DECAY         3     3.60566993E-20   # Fd_2
#    BR                NDA      ID1      ID2
#    BR                NDA      ID1      ID2       ID3
     7.34967004E-01    3            1         -2          2   # BR(Fd_2 -> Fd_1 Fu_1^* Fu_1 )
     2.65032996E-01    3            2        -12         11   # BR(Fd_2 -> Fu_1 Fv_1^* Fe_1 )
DECAY         5     1.70356976E-13   # Fd_3
#    BR                NDA      ID1      ID2
#    BR                NDA      ID1      ID2       ID3
     6.12951287E-03    3            1         -2          2   # BR(Fd_3 -> Fd_1 Fu_1^* Fu_1 )
     4.52963796E-01    3            1         -2          4   # BR(Fd_3 -> Fd_1 Fu_1^* Fu_2 )
     1.67717286E-04    3            1         -4          2   # BR(Fd_3 -> Fd_1 Fu_2^* Fu_1 )
     8.80823256E-03    3            1         -4          4   # BR(Fd_3 -> Fd_1 Fu_2^* Fu_2 )
     3.27013500E-04    3            3         -2          2   # BR(Fd_3 -> Fd_2 Fu_1^* Fu_1 )
     2.41186489E-02    3            3         -2          4   # BR(Fd_3 -> Fd_2 Fu_1^* Fu_2 )
     3.11230926E-03    3            3         -4          2   # BR(Fd_3 -> Fd_2 Fu_2^* Fu_1 )
     1.62627665E-01    3            3         -4          4   # BR(Fd_3 -> Fd_2 Fu_2^* Fu_2 )
     2.15252618E-03    3            2        -12         11   # BR(Fd_3 -> Fu_1 Fv_1^* Fe_1 )
     2.14490780E-03    3            2        -14         13   # BR(Fd_3 -> Fu_1 Fv_2^* Fe_2 )
     5.83957751E-04    3            2        -16         15   # BR(Fd_3 -> Fu_1 Fv_3^* Fe_3 )
     1.59069889E-01    3            4        -12         11   # BR(Fd_3 -> Fu_2 Fv_1^* Fe_1 )
     1.58104211E-01    3            4        -14         13   # BR(Fd_3 -> Fu_2 Fv_2^* Fe_2 )
     1.96896118E-02    3            4        -16         15   # BR(Fd_3 -> Fu_2 Fv_3^* Fe_3 )
DECAY        35     6.13765199E-46   # hh_1
#    BR                NDA      ID1      ID2
     9.99980836E-01    2           21         21   # BR(hh_1 -> VG VG )
DECAY        25     5.10012778E-03   # hh_2
#    BR                NDA      ID1      ID2
     2.07379547E-03    2           22         22   # BR(hh_2 -> VP VP )
     6.74870015E-02    2           21         21   # BR(hh_2 -> VG VG )
     1.92051805E-02    2           23         23   # BR(hh_2 -> VZ VZ )
     1.75190584E-01    2          -24         24   # BR(hh_2 -> VWp^* VWp_virt )
     1.27062093E-03    2          -51         51   # BR(hh_2 -> eta^* eta )
     1.63358953E-04    2           -3          3   # BR(hh_2 -> Fd_2^* Fd_2 )
     4.37563215E-01    2           -5          5   # BR(hh_2 -> Fd_3^* Fd_3 )
     1.76010721E-04    2          -13         13   # BR(hh_2 -> Fe_2^* Fe_2 )
     5.08062068E-02    2          -15         15   # BR(hh_2 -> Fe_3^* Fe_3 )
     2.06400054E-02    2           -4          4   # BR(hh_2 -> Fu_2^* Fu_2 )
     2.10814516E-01    2           23         31   # BR(hh_2 -> VZ VZp )
     1.46089603E-02    2           31         31   # BR(hh_2 -> VZp VZp )
DECAY        31     5.16938591E-05   # VZp
#    BR                NDA      ID1      ID2
     9.99999998E-01    2          -50         50   # BR(VZp -> chi^* chi )
DECAY        21     0.00000000E+00   # VG
DECAY        22     0.00000000E+00   # VP
DECAY        23     2.49520000E+00   # VZ
DECAY        24     2.14100000E+00   # VWp
DECAY        12     0.00000000E+00   # Fv_1
DECAY        14     0.00000000E+00   # Fv_2
DECAY        16     0.00000000E+00   # Fv_3
DECAY         0     0.00000000E+00   # Hp_1
DECAY        50     0.00000000E+00   # chi_1
DECAY        51     0.00000000E+00   # eta_1
DECAY         0     0.00000000E+00   # Ah_1
DECAY         0     0.00000000E+00   # Ah_2
DECAY        111     6.86463262E-03   # VZp
#    BR                NDA      ID1      ID2
     1.0E+00    2          31         22   # BR(VZp -> chi^* chi )
DECAY        221     6.86463262E-03   # VZp
#    BR                NDA      ID1      ID2
     1.0E+00    2          31         22   # BR(VZp -> chi^* chi )
DECAY        223     6.86463262E-03   # VZp
#    BR                NDA      ID1      ID2
     1.0E+00    2          111        22   # BR(VZp -> chi^* chi )
]]>
</slha>
<MGGenerationInfo>
#  Number of Events        :       2625
#  Integrated weight (pb)  :       8626300000.0
</MGGenerationInfo>
</header>
<init>
9 11 6.686200e+01 5.110000e-04 0 0 247000 247000 -4 1
8.626300e+09 2.878500e+07 8.626300e+09 1200
<generator name='MadGraph5_aMC@NLO' version='2.6.4'>please cite 1405.0301 </generator>
</init>
<event>
 4   1200 +8.6263000e+09 2.62756300e-02 7.81665300e-03            nan
       50 -1    0    0    0    0 -4.3372207457e-02 +8.4649610805e-03 +1.7132419003e+01 1.7132476722e+01 4.9935713700e-03 0.0000e+00 0.0000e+00
       11 -1    0    0    0    0 +9.8371584921e-19 -1.9199198902e-19 -3.8857676601e-16 5.1100000000e-04 5.1099893000e-04 0.0000e+00 1.0000e+00
       50  1    1    2    0    0 -5.7685903693e-02 +2.8341409225e-02 +1.6454331236e+01 1.6454457519e+01 4.9935713700e-03 0.0000e+00 0.0000e+00
       11  1    1    2    0    0 +1.4313696236e-02 -1.9876448145e-02 +6.7808776718e-01 6.7853020287e-01 5.1099893000e-04 0.0000e+00 1.0000e+00
<vert_displacement>
412.30520669183608
</vert_displacement>
</event>
<event>
 4   1200 +8.6263000e+09 8.60799200e-03 7.81665300e-03            nan
       50 -1    0    0    0    0 +1.0225275210e-02 -9.8924003604e-03 +9.2596005263e+00 9.2596128028e+00 4.9935713700e-03 0.0000e+00 0.0000e+00
       11 -1    0    0    0    0 +2.6052620084e-19 -2.5204499929e-19 +2.3592211425e-16 5.1100000000e-04 5.1099893000e-04 0.0000e+00 1.0000e+00
       50  1    1    2    0    0 +8.9064101214e-03 -2.9443384559e-03 +9.2112499706e+00 9.2112561006e+00 4.9935713700e-03 0.0000e+00 0.0000e+00
       11  1    1    2    0    0 +1.3188650890e-03 -6.9480619045e-03 +4.8350555695e-02 4.8867702271e-02 5.1099893000e-04 0.0000e+00 1.0000e+00
<vert_displacement>
194.49206302685366
</vert_displacement>
</event>
<event>
 4   1200 +8.6263000e+09 7.56917400e-03 7.81665300e-03            nan
       50 -1    0    0    0    0 -4.9562696888e-03 +9.0834163705e-03 +4.8337006922e+00 4.8337143472e+00 4.9935713700e-03 0.0000e+00 0.0000e+00
       11 -1    0    0    0    0 +3.4151176088e-19 -6.2589280130e-19 -3.3306614422e-16 5.1100000000e-04 5.1099893000e-04 0.0000e+00 1.0000e+00
       50  1    1    2    0    0 +6.0923854084e-04 +7.7027524345e-03 +4.8018341961e+00 4.8018430093e+00 4.9935713700e-03 0.0000e+00 0.0000e+00
       11  1    1    2    0    0 -5.5655082297e-03 +1.3806639361e-03 +3.1866496118e-02 3.2382337926e-02 5.1099893000e-04 0.0000e+00 1.0000e+00
<vert_displacement>
496.41460676840416
</vert_displacement>
</event>
<event>
 4   1200 +8.6263000e+09 6.58935100e-03 7.81665300e-03            nan
       50 -1    0    0    0    0 +2.8434365157e-02 -2.2144533545e-02 +1.4527155150e+01 1.4527200714e+01 4.9935713700e-03 0.0000e+00 0.0000e+00
       11 -1    0    0    0    0 +1.0593670845e-18 -8.2502949548e-19 +5.4123205893e-16 5.1100000000e-04 5.1099893000e-04 0.0000e+00 1.0000e+00
       50  1    1    2    0    0 +3.2551429821e-02 -2.3230644144e-02 +1.4509036224e+01 1.4509092196e+01 4.9935713700e-03 0.0000e+00 0.0000e+00
       11  1    1    2    0    0 -4.1170646642e-03 +1.0861105996e-03 +1.8118925894e-02 1.8619518069e-02 5.1099893000e-04 0.0000e+00 1.0000e+00
<vert_displacement>
373.96954345498898
</vert_displacement>
</event>
<event>
 4   1200 +8.6263000e+09 3.51052400e-02 7.81665300e-03            nan
       50 -1    0    0    0    0 +5.1482864151e-02 -3.2005437445e-02 +1.6105309217e+01 1.6105424078e+01 4.9935713700e-03 0.0000e+00 0.0000e+00
       11 -1    0    0    0    0 +5.0572642897e-18 -3.1439578691e-18 +1.5820566031e-15 5.1100000000e-04 5.1099893000e-04 0.0000e+00 1.0000e+00
       50  1    1    2    0    0 +7.3626535091e-02 -5.2223501243e-02 +1.4821180363e+01 1.4821456084e+01 4.9935713700e-03 0.0000e+00 0.0000e+00
       11  1    1    2    0    0 -2.2143670940e-02 +2.0218063797e-02 +1.2841288532e+00 1.2844789936e+00 5.1099893000e-04 0.0000e+00 1.0000e+00
<vert_displacement>
362.21528338552287
</vert_displacement>
</event>
<event>
 4   1200 +8.6263000e+09 2.57666100e-02 7.81665300e-03            nan
       50 -1    0    0    0    0 -4.5658427665e-03 -1.2381987311e-02 +5.5784631977e+00 5.5784810427e+00 4.9935713700e-03 0.0000e+00 0.0000e+00
       11 -1    0    0    0    0 +2.2149300653e-19 +6.0066098125e-19 -2.7061610499e-16 5.1100000000e-04 5.1099893000e-04 0.0000e+00 1.0000e+00
       50  1    1    2    0    0 +1.9065654514e-02 -3.9727698581e-04 +4.8603749413e+00 4.8604149167e+00 4.9935713700e-03 0.0000e+00 0.0000e+00
       11  1    1    2    0    0 -2.3631497281e-02 -1.1984710325e-02 +7.1808825640e-01 7.1857712602e-01 5.1099893000e-04 0.0000e+00 1.0000e+00
<vert_displacement>
274.08456012441445
</vert_displacement>
</event>
<event>
 4   1200 +8.6263000e+09 3.18732100e-02 7.81665300e-03            nan
       50 -1    0    0    0    0 +9.4931548710e-02 -9.7919019238e-02 +3.8374251137e+01 3.8374493813e+01 4.9935713700e-03 0.0000e+00 0.0000e+00
       11 -1    0    0    0    0 -2.9868086833e-18 +3.0808027562e-18 -1.2073599142e-15 5.1100000000e-04 5.1099893000e-04 0.0000e+00 1.0000e+00
       50  1    1    2    0    0 +7.6939171527e-02 -6.7996720125e-02 +3.7378878354e+01 3.7379019718e+01 4.9935713700e-03 0.0000e+00 0.0000e+00
       11  1    1    2    0    0 +1.7992377183e-02 -2.9922299113e-02 +9.9537278349e-01 9.9598509469e-01 5.1099893000e-04 0.0000e+00 1.0000e+00
<vert_displacement>
163.68385214477135
</vert_displacement>
</event>
<event>
 4   1200 +8.6263000e+09 5.29382700e-03 7.81665300e-03            nan
       50 -1    0    0    0    0 +3.6744122489e-03 -5.6157810329e-04 +1.4482493591e+00 1.4482627381e+00 4.9935713700e-03 0.0000e+00 0.0000e+00
       11 -1    0    0    0    0 +3.7850516643e-19 -5.7848765748e-20 +1.4918572756e-16 5.1100000000e-04 5.1099893000e-04 0.0000e+00 1.0000e+00
       50  1    1    2    0    0 +4.8315826675e-03 +7.5563270708e-04 +1.4452170382e+00 1.4452339390e+00 4.9935713700e-03 0.0000e+00 0.0000e+00
       11  1    1    2    0    0 -1.1571704186e-03 -1.3172108104e-03 +3.0323208709e-03 3.5397990716e-03 5.1099893000e-04 0.0000e+00 1.0000e+00
<vert_displacement>
277.39312222736328
</vert_displacement>
</event>
<event>
 4   1200 +8.6263000e+09 6.19441500e-03 7.81665300e-03            nan
       50 -1    0    0    0    0 -1.4756502492e-02 +3.8667002874e-03 +5.4138717360e+00 5.4138955306e+00 4.9935713700e-03 0.0000e+00 0.0000e+00
       11 -1    0    0    0    0 -9.0783147031e-19 +2.3788239855e-19 +3.3306558521e-16 5.1100000000e-04 5.1099893000e-04 0.0000e+00 1.0000e+00
       50  1    1    2    0    0 -1.8380773068e-02 +3.6625829032e-03 +5.4006826681e+00 5.4007174972e+00 4.9935713700e-03 0.0000e+00 0.0000e+00
       11  1    1    2    0    0 +3.6242705762e-03 +2.0411738411e-04 +1.3189067943e-02 1.3689033356e-02 5.1099893000e-04 0.0000e+00 1.0000e+00
<vert_displacement>
325.10567618906163
</vert_displacement>
</event>
<event>
 4   1200 +8.6263000e+09 6.33363800e-03 7.81665300e-03            nan
       50 -1    0    0    0    0 +1.5055514341e-02 +1.0893076131e-02 +5.2565759044e+00 5.2566111233e+00 4.9935713700e-03 0.0000e+00 0.0000e+00
       11 -1    0    0    0    0 -1.0135621087e-18 -7.3333988886e-19 -3.5388137778e-16 5.1100000000e-04 5.1099893000e-04 0.0000e+00 1.0000e+00
       50  1    1    2    0    0 +1.5823473807e-02 +1.4672981779e-02 +5.2416694559e+00 5.2417162551e+00 4.9935713700e-03 0.0000e+00 0.0000e+00
       11  1    1    2    0    0 -7.6795946646e-04 -3.7799056475e-03 +1.4906448497e-02 1.5405868205e-02 5.1099893000e-04 0.0000e+00 1.0000e+00
<vert_displacement>
335.36110269922926
</vert_displacement>
</event>
<event>
 4   1200 +8.6263000e+09 7.89590500e-03 7.81665300e-03            nan
       50 -1    0    0    0    0 +2.4492238759e-02 +1.3276508222e-02 +1.3906793822e+01 1.3906822623e+01 4.9935713700e-03 0.0000e+00 0.0000e+00
       11 -1    0    0    0    0 +1.3931429948e-18 +7.5518104356e-19 +7.9103231779e-16 5.1100000000e-04 5.1099893000e-04 0.0000e+00 -1.0000e+00
       50  1    1    2    0    0 +2.3342459978e-02 +7.2221682682e-03 +1.3870098899e+01 1.3870121321e+01 4.9935713700e-03 0.0000e+00 0.0000e+00
       11  1    1    2    0    0 +1.1497787806e-03 +6.0543399536e-03 +3.6694922361e-02 3.7212302677e-02 5.1099893000e-04 0.0000e+00 -1.0000e+00
<vert_displacement>
66.124296250395020
</vert_displacement>
</event>
<event>
 4   1200 +8.6263000e+09 3.27106800e-02 7.81665300e-03            nan
       50 -1    0    0    0    0 -3.7685899282e-02 +2.4599764274e-03 +1.2610893191e+01 1.2610950729e+01 4.9935713700e-03 0.0000e+00 0.0000e+00
       11 -1    0    0    0    0 -3.5250903834e-19 +2.3010302030e-20 +1.1796066741e-16 5.1100000000e-04 5.1099893000e-04 0.0000e+00 1.0000e+00
       50  1    1    2    0    0 -2.6678931383e-02 -2.9167665647e-02 +1.1488179726e+01 1.1488248817e+01 4.9935713700e-03 0.0000e+00 0.0000e+00
       11  1    1    2    0    0 -1.1006967900e-02 +3.1627642074e-02 +1.1227134646e+00 1.1232129120e+00 5.1099893000e-04 0.0000e+00 1.0000e+00
<vert_displacement>
180.93749059412153
</vert_displacement>
</event>
<event>
 4   1200 +8.6263000e+09 9.21923300e-03 7.81665300e-03            nan
       50 -1    0    0    0    0 +6.5362282145e-03 -6.7488611630e-04 +2.0885305048e+00 2.0885468113e+00 4.9935713700e-03 0.0000e+00 0.0000e+00
       11 -1    0    0    0    0 +1.9544159198e-19 -2.0179958938e-20 +6.2449736050e-17 5.1100000000e-04 5.1099893000e-04 0.0000e+00 1.0000e+00
       50  1    1    2    0    0 +1.2920031394e-02 -4.7601330277e-03 +2.0279526150e+00 2.0280055056e+00 4.9935713700e-03 0.0000e+00 0.0000e+00
       11  1    1    2    0    0 -6.3838031797e-03 +4.0852469114e-03 +6.0577889770e-02 6.1052305725e-02 5.1099893000e-04 0.0000e+00 1.0000e+00
<vert_displacement>
338.15232388540107
</vert_displacement>
</event>
<event>
 4   1200 +8.6263000e+09 9.15774200e-03 7.81665300e-03            nan
       50 -1    0    0    0    0 +6.5276930105e-03 -5.0430443202e-03 +2.8568632011e+00 2.8568794739e+00 4.9935713700e-03 0.0000e+00 0.0000e+00
       11 -1    0    0    0    0 -2.7745768757e-19 +2.1435312800e-19 -1.2143013714e-16 5.1100000000e-04 5.1099893000e-04 0.0000e+00 1.0000e+00
       50  1    1    2    0    0 -1.1475591518e-03 -3.5016565858e-03 +2.7979884695e+00 2.7979953520e+00 4.9935713700e-03 0.0000e+00 0.0000e+00
       11  1    1    2    0    0 +7.6752521623e-03 -1.5413877344e-03 +5.8874731581e-02 5.9395121942e-02 5.1099893000e-04 0.0000e+00 1.0000e+00
<vert_displacement>
74.991970928600551
</vert_displacement>
</event>
<event>
 4   1200 +8.6263000e+09 5.08551100e-02 7.81665300e-03            nan
       50 -1    0    0    0    0 -6.4400908033e-02 -3.5166106144e-02 +3.2206519322e+01 3.2206603296e+01 4.9935713700e-03 0.0000e+00 0.0000e+00
       11 -1    0    0    0    0 +4.1625414771e-19 +2.2729551474e-19 -2.0816627685e-16 5.1100000000e-04 5.1099893000e-04 0.0000e+00 1.0000e+00
       50  1    1    2    0    0 -9.5598291690e-02 +2.6996593350e-03 +2.9467102379e+01 2.9467257997e+01 4.9935713700e-03 0.0000e+00 0.0000e+00
       11  1    1    2    0    0 +3.1197383657e-02 -3.7865765479e-02 +2.7394169426e+00 2.7398562991e+00 5.1099893000e-04 0.0000e+00 1.0000e+00
<vert_displacement>
209.44426177674441
</vert_displacement>
</event>
<event>
 4   1200 +8.6263000e+09 2.35383300e-02 7.81665300e-03            nan
       50 -1    0    0    0    0 -3.5279789103e-02 -5.7496064868e-03 +3.9295648617e+01 3.9295665193e+01 4.9935713700e-03 0.0000e+00 0.0000e+00
       11 -1    0    0    0    0 +2.6289603559e-18 +4.2844608485e-19 -2.9282120160e-15 5.1100000000e-04 5.1099893000e-04 0.0000e+00 1.0000e+00
       50  1    1    2    0    0 -1.7309448639e-02 -2.0602473750e-02 +3.8770916694e+01 3.8770926354e+01 4.9935713700e-03 0.0000e+00 0.0000e+00
       11  1    1    2    0    0 -1.7970340465e-02 +1.4852867263e-02 +5.2473192305e-01 5.2524983863e-01 5.1099893000e-04 0.0000e+00 1.0000e+00
<vert_displacement>
294.17720687114462
</vert_displacement>
</event>
<event>
 4   1200 +8.6263000e+09 2.90929500e-02 7.81665300e-03            nan
       50 -1    0    0    0    0 -3.4932996103e-03 -6.4839761670e-03 +4.0135346500e+00 4.0135445143e+00 4.9935713700e-03 0.0000e+00 0.0000e+00
       11 -1    0    0    0    0 -2.5365745164e-19 -4.7081815318e-19 +2.9143305327e-16 5.1100000000e-04 5.1099893000e-04 0.0000e+00 1.0000e+00
       50  1    1    2    0    0 -6.7215009771e-03 +2.3670994144e-02 +2.8974337075e+00 2.8975424966e+00 4.9935713700e-03 0.0000e+00 0.0000e+00
       11  1    1    2    0    0 +3.2282013668e-03 -3.0154970311e-02 +1.1161009426e+00 1.1165130177e+00 5.1099893000e-04 0.0000e+00 1.0000e+00
<vert_displacement>
138.06071281470636
</vert_displacement>
</event>
<event>
 4   1200 +8.6263000e+09 3.28994700e-02 7.81665300e-03            nan
       50 -1    0    0    0    0 -1.9459928310e-02 +6.4964915207e-02 +4.1358656352e+01 4.1358712254e+01 4.9935713700e-03 0.0000e+00 0.0000e+00
       11 -1    0    0    0    0 +2.1025694292e-18 -7.0192059553e-18 -4.4686416667e-15 5.1100000000e-04 5.1099893000e-04 0.0000e+00 1.0000e+00
       50  1    1    2    0    0 +9.9535062120e-03 +4.8416185360e-02 +4.0296720914e+01 4.0296751539e+01 4.9935713700e-03 0.0000e+00 0.0000e+00
       11  1    1    2    0    0 -2.9413434522e-02 +1.6548729847e-02 +1.0619354374e+00 1.0624717149e+00 5.1099893000e-04 0.0000e+00 1.0000e+00
<vert_displacement>
80.666948520940849
</vert_displacement>
</event>
<event>
 4   1200 +8.6263000e+09 2.33073100e-02 7.81665300e-03            nan
       50 -1    0    0    0    0 +1.4838545829e-02 -7.5605540088e-03 +4.7975869394e+00 4.7976184426e+00 4.9935713700e-03 0.0000e+00 0.0000e+00
       11 -1    0    0    0    0 -2.1246691599e-18 +1.0825640274e-18 -6.8694635777e-16 5.1100000000e-04 5.1099893000e-04 0.0000e+00 1.0000e+00
       50  1    1    2    0    0 -3.7728845606e-03 -2.1985767932e-02 +4.2207029120e+00 4.2207648141e+00 4.9935713700e-03 0.0000e+00 0.0000e+00
       11  1    1    2    0    0 +1.8611430390e-02 +1.4425213923e-02 +5.7688402740e-01 5.7736462857e-01 5.1099893000e-04 0.0000e+00 1.0000e+00
<vert_displacement>
60.728211750354355
</vert_displacement>
</event>
<event>
 4   1200 +8.6263000e+09 6.72116900e-03 7.81665300e-03            nan
       50 -1    0    0    0    0 -6.0792599793e-03 -8.2177535369e-03 +4.8636709123e+00 4.8636842175e+00 4.9935713700e-03 0.0000e+00 0.0000e+00
       11 -1    0    0    0    0 -6.9385034649e-20 -9.3792520115e-20 +5.5511028631e-17 5.1100000000e-04 5.1099893000e-04 0.0000e+00 1.0000e+00
       50  1    1    2    0    0 -9.0459315956e-03 -4.8242256048e-03 +4.8437863908e+00 4.8437998139e+00 4.9935713700e-03 0.0000e+00 0.0000e+00
       11  1    1    2    0    0 +2.9666716163e-03 -3.3935279321e-03 +1.9884521510e-02 2.0395403597e-02 5.1099893000e-04 0.0000e+00 1.0000e+00
<vert_displacement>
431.51903088832410
</vert_displacement>
</event>
<event>
 4   1200 +8.6263000e+09 3.39407100e-02 7.81665300e-03            nan
       50 -1    0    0    0    0 +9.3010631695e-03 +5.5870124882e-03 +4.9626047041e+00 4.9626190776e+00 4.9935713700e-03 0.0000e+00 0.0000e+00
       11 -1    0    0    0    0 +7.2828295759e-19 +4.3746891133e-19 +3.8857712988e-16 5.1100000000e-04 5.1099893000e-04 0.0000e+00 1.0000e+00
       50  1    1    2    0    0 +2.6405361502e-02 +3.0513780854e-02 +3.2999074479e+00 3.3001579409e+00 4.9935713700e-03 0.0000e+00 0.0000e+00
       11  1    1    2    0    0 -1.7104298332e-02 -2.4926768366e-02 +1.6626972561e+00 1.6629721367e+00 5.1099893000e-04 0.0000e+00 1.0000e+00
<vert_displacement>
175.88949519569485
</vert_displacement>
</event>
<event>
 4   1200 +8.6263000e+09 1.57973900e-02 7.81665300e-03            nan
       50 -1    0    0    0    0 +3.3006323211e-02 -5.0512692334e-03 +9.6401473751e+00 9.6402064958e+00 4.9935713700e-03 0.0000e+00 0.0000e+00
       11 -1    0    0    0    0 -3.4923555470e-18 +5.3446813854e-19 -1.0200112852e-15 5.1100000000e-04 5.1099893000e-04 0.0000e+00 1.0000e+00
       50  1    1    2    0    0 +4.7221169611e-02 -4.6964312905e-03 +9.4150315784e+00 9.4151524923e+00 4.9935713700e-03 0.0000e+00 0.0000e+00
       11  1    1    2    0    0 -1.4214846401e-02 -3.5483794291e-04 +2.2511579672e-01 2.2556500354e-01 5.1099893000e-04 0.0000e+00 1.0000e+00
<vert_displacement>
222.96200327419413
</vert_displacement>
</event>
<event>
 4   1200 +8.6263000e+09 1.15774100e-02 7.81665300e-03            nan
       50 -1    0    0    0    0 -2.8297151906e-02 +1.3962721452e-02 +8.1796397369e+00 8.1797021246e+00 4.9935713700e-03 0.0000e+00 0.0000e+00
       11 -1    0    0    0    0 -3.9127596407e-18 +1.9306809800e-18 +1.1310312905e-15 5.1100000000e-04 5.1099893000e-04 0.0000e+00 1.0000e+00
       50  1    1    2    0    0 -3.6545404624e-02 +1.9673013387e-02 +8.0714065657e+00 8.0715148193e+00 4.9935713700e-03 0.0000e+00 0.0000e+00
       11  1    1    2    0    0 +8.2482527177e-03 -5.7102919343e-03 +1.0823317119e-01 1.0869830529e-01 5.1099893000e-04 0.0000e+00 1.0000e+00
<vert_displacement>
200.08124592772231
</vert_displacement>
</event>
<event>
 4   1200 +8.6263000e+09 2.64068800e-02 7.81665300e-03            nan
       50 -1    0    0    0    0 +2.1180580061e-02 +1.1185271582e-02 +1.3310155155e+01 1.3310177644e+01 4.9935713700e-03 0.0000e+00 0.0000e+00
       11 -1    0    0    0    0 -2.0979632509e-19 -1.1079153008e-19 -1.3183877070e-16 5.1100000000e-04 5.1099893000e-04 0.0000e+00 1.0000e+00
       50  1    1    2    0    0 -2.0812470144e-03 +2.4072184919e-02 +1.2615968100e+01 1.2615992226e+01 4.9935713700e-03 0.0000e+00 0.0000e+00
       11  1    1    2    0    0 +2.3261827076e-02 -1.2886913337e-02 +6.9418705515e-01 6.9469641844e-01 5.1099893000e-04 0.0000e+00 1.0000e+00
<vert_displacement>
141.54632957392369
</vert_displacement>
</event>
<event>
 4   1200 +8.6263000e+09 1.16388900e-02 7.81665300e-03            nan
       50 -1    0    0    0    0 -3.3750387755e-03 +9.2742600515e-03 +6.0269530660e+00 6.0269632153e+00 4.9935713700e-03 0.0000e+00 0.0000e+00
       11 -1    0    0    0    0 +8.5485666679e-20 -2.3490583551e-19 -1.5265546121e-16 5.1100000000e-04 5.1099893000e-04 0.0000e+00 1.0000e+00
       50  1    1    2    0    0 -1.1407156210e-02 +1.5814260169e-02 +5.9167580288e+00 5.9167922662e+00 4.9935713700e-03 0.0000e+00 0.0000e+00
       11  1    1    2    0    0 +8.0321174341e-03 -6.5400001178e-03 +1.1019503725e-01 1.1068194915e-01 5.1099893000e-04 0.0000e+00 1.0000e+00
<vert_displacement>
17.547848878478010
</vert_displacement>
</event>
<event>
 4   1200 +8.6263000e+09 9.95636200e-03 7.81665300e-03            nan
       50 -1    0    0    0    0 +5.7298754059e-03 +4.6054673326e-03 +1.0391135768e+01 1.0391139568e+01 4.9935713700e-03 0.0000e+00 0.0000e+00
       11 -1    0    0    0    0 -1.9131203972e-19 -1.5376972218e-19 -3.4694460837e-16 5.1100000000e-04 5.1099893000e-04 0.0000e+00 1.0000e+00
       50  1    1    2    0    0 +3.2235615929e-03 -3.6799519501e-03 +1.0318025285e+01 1.0318027653e+01 4.9935713700e-03 0.0000e+00 0.0000e+00
       11  1    1    2    0    0 +2.5063138130e-03 +8.2854192827e-03 +7.3110482391e-02 7.3622914483e-02 5.1099893000e-04 0.0000e+00 1.0000e+00
<vert_displacement>
4.2237673280215837
</vert_displacement>
</event>
<event>
 4   1200 +8.6263000e+09 9.45188400e-03 7.81665300e-03            nan
       50 -1    0    0    0    0 -1.6798128325e-02 -1.0828469150e-02 +1.0609714378e+01 1.0609734377e+01 4.9935713700e-03 0.0000e+00 0.0000e+00
       11 -1    0    0    0    0 +9.7776994894e-19 +6.3029353763e-19 -6.1756046176e-16 5.1100000000e-04 5.1099893000e-04 0.0000e+00 -1.0000e+00
       50  1    1    2    0    0 -2.3651456582e-02 -6.7577336134e-03 +1.0546308829e+01 1.0546338697e+01 4.9935713700e-03 0.0000e+00 0.0000e+00
       11  1    1    2    0    0 +6.8533282563e-03 -4.0707355364e-03 +6.3405548560e-02 6.3906679652e-02 5.1099893000e-04 0.0000e+00 -1.0000e+00
<vert_displacement>
400.84147045466580
</vert_displacement>
</event>
<event>
 4   1200 +8.6263000e+09 2.74914800e-02 7.81665300e-03            nan
       50 -1    0    0    0    0 -4.2437712336e-02 +5.4495181872e-02 +3.6481663575e+01 3.6481729301e+01 4.9935713700e-03 0.0000e+00 0.0000e+00
       11 -1    0    0    0    0 -1.7757813075e-19 +2.2803190840e-19 +1.5265539229e-16 5.1100000000e-04 5.1099893000e-04 0.0000e+00 1.0000e+00
       50  1    1    2    0    0 -3.4941793880e-02 +2.7200931947e-02 +3.5751982228e+01 3.5752009999e+01 4.9935713700e-03 0.0000e+00 0.0000e+00
       11  1    1    2    0    0 -7.4959184554e-03 +2.7294249925e-02 +7.2968134682e-01 7.3023030195e-01 5.1099893000e-04 0.0000e+00 1.0000e+00
<vert_displacement>
229.68327441005420
</vert_displacement>
</event>
<event>
 4   1200 +8.6263000e+09 9.96660900e-03 7.81665300e-03            nan
       50 -1    0    0    0    0 -1.4711570644e-02 +1.1600990052e-02 +9.4359984576e+00 9.4360183786e+00 4.9935713700e-03 0.0000e+00 0.0000e+00
       11 -1    0    0    0    0 +2.2718511126e-19 -1.7914961492e-19 -1.4571648475e-16 5.1100000000e-04 5.1099893000e-04 0.0000e+00 1.0000e+00
       50  1    1    2    0    0 -2.3187287954e-02 +1.2290095272e-02 +9.3626123004e+00 9.3626504111e+00 4.9935713700e-03 0.0000e+00 0.0000e+00
       11  1    1    2    0    0 +8.4757173100e-03 -6.8910522010e-04 +7.3386157205e-02 7.3878967502e-02 5.1099893000e-04 0.0000e+00 1.0000e+00
<vert_displacement>
142.73580731735095
</vert_displacement>
</event>
<event>
 4   1200 +8.6263000e+09 2.82838300e-02 7.81665300e-03            nan
       50 -1    0    0    0    0 -4.1698242064e-02 -1.8091401079e-02 +1.8824626603e+01 1.8824682141e+01 4.9935713700e-03 0.0000e+00 0.0000e+00
       11 -1    0    0    0    0 +1.2910992917e-18 +5.6016258632e-19 -5.8286538881e-16 5.1100000000e-04 5.1099893000e-04 0.0000e+00 1.0000e+00
       50  1    1    2    0    0 -3.8416445011e-02 -4.5128073270e-02 +1.8032889314e+01 1.8032987393e+01 4.9935713700e-03 0.0000e+00 0.0000e+00
       11  1    1    2    0    0 -3.2817970533e-03 +2.7036672190e-02 +7.9173728819e-01 7.9220574755e-01 5.1099893000e-04 0.0000e+00 1.0000e+00
<vert_displacement>
287.36934390564096
</vert_displacement>
</event>
<event>
 4   1200 +8.6263000e+09 1.65895500e-02 7.81665300e-03            nan
       50 -1    0    0    0    0 +2.6779152999e-02 -1.5928795560e-02 +7.7286742385e+00 7.7287386597e+00 4.9935713700e-03 0.0000e+00 0.0000e+00
       11 -1    0    0    0    0 -4.8084881237e-19 +2.8601884561e-19 -1.3877675029e-16 5.1100000000e-04 5.1099893000e-04 0.0000e+00 1.0000e+00
       50  1    1    2    0    0 +1.6876336472e-02 -2.4139709634e-03 +7.4755053808e+00 7.4755264879e+00 4.9935713700e-03 0.0000e+00 0.0000e+00
       11  1    1    2    0    0 +9.9028165268e-03 -1.3514824596e-02 +2.5316885773e-01 2.5372317179e-01 5.1099893000e-04 0.0000e+00 1.0000e+00
<vert_displacement>
210.61682827409905
</vert_displacement>
</event>
<event>
 4   1200 +8.6263000e+09 6.82380400e-03 7.81665300e-03            nan
       50 -1    0    0    0    0 -1.2973738892e-01 +3.6879483467e-02 +4.5751753279e+01 4.5751952362e+01 4.9935713700e-03 0.0000e+00 0.0000e+00
       11 -1    0    0    0    0 +1.0074319788e-17 -2.8637520236e-18 -3.5526982409e-15 5.1100000000e-04 5.1099893000e-04 0.0000e+00 1.0000e+00
       50  1    1    2    0    0 -1.2655848702e-01 +4.0312228144e-02 +4.5730586441e+01 4.5730779605e+01 4.9935713700e-03 0.0000e+00 0.0000e+00
       11  1    1    2    0    0 -3.1789018981e-03 -3.4327446768e-03 +2.1166838183e-02 2.1683756867e-02 5.1099893000e-04 0.0000e+00 1.0000e+00
<vert_displacement>
12.271629886133148
</vert_displacement>
</event>
<event>
 4   1200 +8.6263000e+09 1.08471300e-02 7.81665300e-03            nan
       50 -1    0    0    0    0 -1.7949405076e-03 -7.9934262427e-03 +6.9160957252e+00 6.9161023801e+00 4.9935713700e-03 0.0000e+00 0.0000e+00
       11 -1    0    0    0    0 +1.0805136455e-20 +4.8118620607e-20 -4.1633334214e-17 5.1100000000e-04 5.1099893000e-04 0.0000e+00 1.0000e+00
       50  1    1    2    0    0 -1.2234498960e-03 -1.7500898101e-02 +6.8241226712e+00 6.8241470490e+00 4.9935713700e-03 0.0000e+00 0.0000e+00
       11  1    1    2    0    0 -5.7149061160e-04 +9.5074718582e-03 +9.1973053966e-02 9.2466331161e-02 5.1099893000e-04 0.0000e+00 1.0000e+00
<vert_displacement>
165.60838814418702
</vert_displacement>
</event>
<event>
 4   1200 +8.6263000e+09 3.09552800e-02 7.81665300e-03            nan
       50 -1    0    0    0    0 -9.2427661043e-02 +4.2770620575e-02 +3.7538724678e+01 3.7538863163e+01 4.9935713700e-03 0.0000e+00 0.0000e+00
       11 -1    0    0    0    0 +5.4671510890e-18 -2.5299076295e-18 -2.2204378774e-15 5.1100000000e-04 5.1099893000e-04 0.0000e+00 1.0000e+00
       50  1    1    2    0    0 -6.3964659007e-02 +2.5920514884e-02 +3.6602211670e+01 3.6602277080e+01 4.9935713700e-03 0.0000e+00 0.0000e+00
       11  1    1    2    0    0 -2.8463002036e-02 +1.6850105690e-02 +9.3651300785e-01 9.3709708331e-01 5.1099893000e-04 0.0000e+00 1.0000e+00
<vert_displacement>
357.63252269583870
</vert_displacement>
</event>
<event>
 4   1200 +8.6263000e+09 1.91582000e-02 7.81665300e-03            nan
       50 -1    0    0    0    0 +1.1597902183e-02 +6.5202506125e-02 +3.5512186658e+01 3.5512248761e+01 4.9935713700e-03 0.0000e+00 0.0000e+00
       11 -1    0    0    0    0 -2.9460144390e-19 -1.6562264579e-18 -9.0205463894e-16 5.1100000000e-04 5.1099893000e-04 0.0000e+00 1.0000e+00
       50  1    1    2    0    0 +3.2263203119e-03 +8.1130488157e-02 +3.5174199451e+01 3.5174293518e+01 4.9935713700e-03 0.0000e+00 0.0000e+00
       11  1    1    2    0    0 +8.3715818707e-03 -1.5927982032e-02 +3.3798720715e-01 3.3846624250e-01 5.1099893000e-04 0.0000e+00 1.0000e+00
<vert_displacement>
0.70626079679310350
</vert_displacement>
</event>
<event>
 4   1200 +8.6263000e+09 9.70585200e-03 7.81665300e-03            nan
       50 -1    0    0    0    0 -8.7097971071e-03 -2.3930632347e-03 +4.4561164893e+00 4.4561284418e+00 4.9935713700e-03 0.0000e+00 0.0000e+00
       11 -1    0    0    0    0 +1.4376286634e-18 +3.9499614713e-19 -7.3552124278e-16 5.1100000000e-04 5.1099893000e-04 0.0000e+00 1.0000e+00
       50  1    1    2    0    0 -1.3750556357e-02 +4.1618593077e-03 +4.3872558187e+00 4.3872821830e+00 4.9935713700e-03 0.0000e+00 0.0000e+00
       11  1    1    2    0    0 +5.0407592495e-03 -6.5549225424e-03 +6.8860670615e-02 6.9357258747e-02 5.1099893000e-04 0.0000e+00 1.0000e+00
<vert_displacement>
221.78764011029011
</vert_displacement>
</event>
<event>
 4   1200 +8.6263000e+09 5.75787200e-03 7.81665300e-03            nan
       50 -1    0    0    0    0 +1.2270179519e-02 +1.9620120110e-02 +1.8541549084e+01 1.8541564197e+01 4.9935713700e-03 0.0000e+00 0.0000e+00
       11 -1    0    0    0    0 +1.0285912578e-18 +1.6447260604e-18 +1.5543110239e-15 5.1100000000e-04 5.1099893000e-04 0.0000e+00 1.0000e+00
       50  1    1    2    0    0 +1.5116093523e-02 +1.9907868244e-02 +1.8533502735e+01 1.8533520264e+01 4.9935713700e-03 0.0000e+00 0.0000e+00
       11  1    1    2    0    0 -2.8459140031e-03 -2.8774813419e-04 +8.0463490779e-03 8.5549330150e-03 5.1099893000e-04 0.0000e+00 1.0000e+00
<vert_displacement>
72.330195910247198
</vert_displacement>
</event>
<event>
 4   1200 +8.6263000e+09 2.44506500e-02 7.81665300e-03            nan
       50 -1    0    0    0    0 -4.2576034218e-02 +4.5857528012e-02 +2.2608440140e+01 2.2608527288e+01 4.9935713700e-03 0.0000e+00 0.0000e+00
       11 -1    0    0    0    0 +2.2736962149e-18 -2.4489384646e-18 -1.2073629147e-15 5.1100000000e-04 5.1099893000e-04 0.0000e+00 1.0000e+00
       50  1    1    2    0    0 -2.7611081324e-02 +2.5192234751e-02 +2.2033278011e+01 2.2033310279e+01 4.9935713700e-03 0.0000e+00 0.0000e+00
       11  1    1    2    0    0 -1.4964952895e-02 +2.0665293261e-02 +5.7516212988e-01 5.7572800951e-01 5.1099893000e-04 0.0000e+00 1.0000e+00
<vert_displacement>
380.99780579393291
</vert_displacement>
</event>
<event>
 4   1200 +8.6263000e+09 6.20760900e-03 7.81665300e-03            nan
       50 -1    0    0    0    0 +1.9756466469e-02 +7.3443572506e-04 +1.6233075653e+01 1.6233088460e+01 4.9935713700e-03 0.0000e+00 0.0000e+00
       11 -1    0    0    0    0 +3.1246408643e-18 +1.1615679769e-19 +2.5673888404e-15 5.1100000000e-04 5.1099893000e-04 0.0000e+00 1.0000e+00
       50  1    1    2    0    0 +1.7488112158e-02 +3.6538473854e-03 +1.6219760988e+01 1.6219771596e+01 4.9935713700e-03 0.0000e+00 0.0000e+00
       11  1    1    2    0    0 +2.2683543112e-03 -2.9194116604e-03 +1.3314664384e-02 1.3827863294e-02 5.1099893000e-04 0.0000e+00 1.0000e+00
<vert_displacement>
93.455227483063453
</vert_displacement>
</event>
<event>
 4   1200 +8.6263000e+09 3.17213300e-02 7.81665300e-03            nan
       50 -1    0    0    0    0 -6.8094519562e-03 +1.6981554236e-02 +7.9163813315e+00 7.9164040488e+00 4.9935713700e-03 0.0000e+00 0.0000e+00
       11 -1    0    0    0    0 +9.6691780155e-19 -2.4113199116e-18 -1.1240978103e-15 5.1100000000e-04 5.1099893000e-04 0.0000e+00 1.0000e+00
       50  1    1    2    0    0 +1.1287437561e-02 +4.0805797562e-02 +6.7974813402e+00 6.7976150248e+00 4.9935713700e-03 0.0000e+00 0.0000e+00
       11  1    1    2    0    0 -1.8096889517e-02 -2.3824243326e-02 +1.1188999914e+00 1.1193000240e+00 5.1099893000e-04 0.0000e+00 1.0000e+00
<vert_displacement>
342.06487696531542
</vert_displacement>
</event>
<event>
 4   1200 +8.6263000e+09 3.49701400e-02 7.81665300e-03            nan
       50 -1    0    0    0    0 -2.0478259539e-02 -1.5288203262e-02 +8.0888598135e+00 8.0889017244e+00 4.9935713700e-03 0.0000e+00 0.0000e+00
       11 -1    0    0    0    0 -3.4782356660e-18 -2.5967037753e-18 +1.3738941362e-15 5.1100000000e-04 5.1099893000e-04 0.0000e+00 1.0000e+00
       50  1    1    2    0    0 +1.5115111945e-02 +6.1729197785e-04 +6.6654434468e+00 6.6654624840e+00 4.9935713700e-03 0.0000e+00 0.0000e+00
       11  1    1    2    0    0 -3.5593371484e-02 -1.5905495240e-02 +1.4234163667e+00 1.4239502403e+00 5.1099893000e-04 0.0000e+00 1.0000e+00
<vert_displacement>
186.17778055471123
</vert_displacement>
</event>
<event>
 4   1200 +8.6263000e+09 1.73419800e-02 7.81665300e-03            nan
       50 -1    0    0    0    0 -5.3490341950e-03 -8.5028311273e-03 +5.4894360890e+00 5.4894475515e+00 4.9935713700e-03 0.0000e+00 0.0000e+00
       11 -1    0    0    0    0 +2.3664928978e-19 +3.7617799289e-19 -2.4286088000e-16 5.1100000000e-04 5.1099893000e-04 0.0000e+00 1.0000e+00
       50  1    1    2    0    0 +1.1229826257e-02 -4.8881799663e-03 +5.2047274196e+00 5.2047442254e+00 4.9935713700e-03 0.0000e+00 0.0000e+00
       11  1    1    2    0    0 -1.6578860452e-02 -3.6146511609e-03 +2.8470866936e-01 2.8521432616e-01 5.1099893000e-04 0.0000e+00 1.0000e+00
<vert_displacement>
60.472168697725294
</vert_displacement>
</event>
<event>
 4   1200 +8.6263000e+09 7.61749100e-03 7.81665300e-03            nan
       50 -1    0    0    0    0 -1.6625177717e-02 -3.3440167695e-02 +1.2954172886e+01 1.2954227678e+01 4.9935713700e-03 0.0000e+00 0.0000e+00
       11 -1    0    0    0    0 -2.6804736709e-18 -5.3915507301e-18 +2.0885983861e-15 5.1100000000e-04 5.1099893000e-04 0.0000e+00 1.0000e+00
       50  1    1    2    0    0 -2.2222494102e-02 -3.2219556145e-02 +1.2921707845e+01 1.2921768087e+01 4.9935713700e-03 0.0000e+00 0.0000e+00
       11  1    1    2    0    0 +5.5973163853e-03 -1.2206115508e-03 +3.2465041114e-02 3.2970590800e-02 5.1099893000e-04 0.0000e+00 1.0000e+00
<vert_displacement>
419.24597191871982
</vert_displacement>
</event>
<event>
 4   1200 +8.6263000e+09 1.83595800e-02 7.81665300e-03            nan
       50 -1    0    0    0    0 +1.7052366028e-02 +9.1050338695e-03 +6.9015036374e+00 6.9015325166e+00 4.9935713700e-03 0.0000e+00 0.0000e+00
       11 -1    0    0    0    0 +4.6290645055e-19 +2.4716680980e-19 +1.8734940049e-16 5.1100000000e-04 5.1099893000e-04 0.0000e+00 1.0000e+00
       50  1    1    2    0    0 +2.0568331965e-02 -8.4518914498e-03 +6.5811519025e+00 6.5811913656e+00 4.9935713700e-03 0.0000e+00 0.0000e+00
       11  1    1    2    0    0 -3.5159659364e-03 +1.7556925319e-02 +3.2035173496e-01 3.2085215108e-01 5.1099893000e-04 0.0000e+00 1.0000e+00
<vert_displacement>
262.77248821223606
</vert_displacement>
</event>
<event>
 4   1200 +8.6263000e+09 4.76125800e-02 7.81665300e-03            nan
       50 -1    0    0    0    0 -1.6260407872e-02 -1.0715010987e-02 +1.1414931681e+01 1.1414949383e+01 4.9935713700e-03 0.0000e+00 0.0000e+00
       11 -1    0    0    0    0 -1.4332294914e-18 -9.4444554333e-19 +1.0061381520e-15 5.1100000000e-04 5.1099893000e-04 0.0000e+00 1.0000e+00
       50  1    1    2    0    0 -4.8624682341e-02 -3.7983936445e-02 +8.4485274145e+00 8.4487542010e+00 4.9935713700e-03 0.0000e+00 0.0000e+00
       11  1    1    2    0    0 +3.2364274469e-02 +2.7268925458e-02 +2.9664042660e+00 2.9667061821e+00 5.1099893000e-04 0.0000e+00 1.0000e+00
<vert_displacement>
286.79108628565177
</vert_displacement>
</event>
<event>
 4   1200 +8.6263000e+09 1.22274900e-02 7.81665300e-03            nan
       50 -1    0    0    0    0 +5.6552946191e-03 -8.0424491315e-03 +6.9006339048e+00 6.9006427155e+00 4.9935713700e-03 0.0000e+00 0.0000e+00
       11 -1    0    0    0    0 -2.1609247826e-19 +3.0730720169e-19 -2.6367770072e-16 5.1100000000e-04 5.1099893000e-04 0.0000e+00 1.0000e+00
       50  1    1    2    0    0 -5.5399060572e-03 -6.6686314002e-03 +6.7765002238e+00 6.7765076093e+00 4.9935713700e-03 0.0000e+00 0.0000e+00
       11  1    1    2    0    0 +1.1195200676e-02 -1.3738177314e-03 +1.2413368099e-01 1.2464610612e-01 5.1099893000e-04 0.0000e+00 1.0000e+00
<vert_displacement>
87.539500931205367
</vert_displacement>
</event>
<event>
 4   1200 +8.6263000e+09 1.13489000e-02 7.81665300e-03            nan
       50 -1    0    0    0    0 +7.8553233040e-04 -1.6798132311e-02 +1.1855352709e+01 1.1855365687e+01 4.9935713700e-03 0.0000e+00 0.0000e+00
       11 -1    0    0    0    0 +6.8965303888e-21 -1.4747811831e-19 +1.0408330385e-16 5.1100000000e-04 5.1099893000e-04 0.0000e+00 1.0000e+00
       50  1    1    2    0    0 +2.2040062809e-03 -6.5617729401e-03 +1.1752848219e+01 1.1752851318e+01 4.9935713700e-03 0.0000e+00 0.0000e+00
       11  1    1    2    0    0 -1.4184739505e-03 -1.0236359371e-02 +1.0250449004e-01 1.0302536930e-01 5.1099893000e-04 0.0000e+00 1.0000e+00
<vert_displacement>
51.979418982790484
</vert_displacement>
</event>
<event>
 4   1200 +8.6263000e+09 1.38342300e-02 7.81665300e-03            nan
       50 -1    0    0    0    0 +4.9735899173e-02 +3.3940806125e-02 +1.5205120480e+01 1.5205240523e+01 4.9935713700e-03 0.0000e+00 0.0000e+00
       11 -1    0    0    0    0 -1.3391183516e-18 -9.1384205584e-19 -4.0939153028e-16 5.1100000000e-04 5.1099893000e-04 0.0000e+00 1.0000e+00
       50  1    1    2    0    0 +5.9027111555e-02 +2.5217134267e-02 +1.5040449858e+01 1.5040587654e+01 4.9935713700e-03 0.0000e+00 0.0000e+00
       11  1    1    2    0    0 -9.2912123820e-03 +8.7236718584e-03 +1.6467062122e-01 1.6516386921e-01 5.1099893000e-04 0.0000e+00 1.0000e+00
<vert_displacement>
473.26980581575594
</vert_displacement>
</event>
<event>
 4   1200 +8.6263000e+09 1.42330900e-02 7.81665300e-03            nan
       50 -1    0    0    0    0 +9.0837876139e-03 +1.4488216741e-02 +6.3529968459e+00 6.3530218230e+00 4.9935713700e-03 0.0000e+00 0.0000e+00
       11 -1    0    0    0    0 +4.6631014454e-19 +7.4374288898e-19 +3.2612683205e-16 5.1100000000e-04 5.1099893000e-04 0.0000e+00 1.0000e+00
       50  1    1    2    0    0 +3.2812157941e-03 +1.9609652891e-03 +6.1741414677e+00 6.1741446704e+00 4.9935713700e-03 0.0000e+00 0.0000e+00
       11  1    1    2    0    0 +5.8025718197e-03 +1.2527251452e-02 +1.7885537820e-01 1.7938815262e-01 5.1099893000e-04 0.0000e+00 1.0000e+00
<vert_displacement>
2.1280786280639918
</vert_displacement>
</event>
<event>
 4   1200 +8.6263000e+09 1.49520400e-02 7.81665300e-03            nan
       50 -1    0    0    0    0 +2.0802105422e-02 -1.0212166606e-02 +6.2280500246e+00 6.2280951390e+00 4.9935713700e-03 0.0000e+00 0.0000e+00
       11 -1    0    0    0    0 +5.0987664845e-19 -2.5030857102e-19 +1.5265460916e-16 5.1100000000e-04 5.1099893000e-04 0.0000e+00 1.0000e+00
       50  1    1    2    0    0 +2.7729400475e-02 +1.9871143714e-03 +6.0271737584e+00 6.0272399420e+00 4.9935713700e-03 0.0000e+00 0.0000e+00
       11  1    1    2    0    0 -6.9272950532e-03 -1.2199280977e-02 +2.0087626618e-01 2.0136619703e-01 5.1099893000e-04 0.0000e+00 1.0000e+00
<vert_displacement>
228.47059570275371
</vert_displacement>
</event>
<event>
 4   1200 +8.6263000e+09 2.14571500e-02 7.81665300e-03            nan
       50 -1    0    0    0    0 +2.9441728674e-02 +5.1158698049e-03 +1.2391519980e+01 1.2391557018e+01 4.9935713700e-03 0.0000e+00 0.0000e+00
       11 -1    0    0    0    0 +3.0499971764e-18 +5.2997528211e-19 +1.2836916395e-15 5.1100000000e-04 5.1099893000e-04 0.0000e+00 1.0000e+00
       50  1    1    2    0    0 +1.3817766644e-02 -1.0002107908e-02 +1.1949654936e+01 1.1949668155e+01 4.9935713700e-03 0.0000e+00 0.0000e+00
       11  1    1    2    0    0 +1.5623962029e-02 +1.5117977713e-02 +4.4186504371e-01 4.4239986371e-01 5.1099893000e-04 0.0000e+00 1.0000e+00
<vert_displacement>
98.246979293579869
</vert_displacement>
</event>
<event>
 4   1200 +8.6263000e+09 1.02547400e-02 7.81665300e-03            nan
       50 -1    0    0    0    0 +2.0057240626e-02 +3.2399243753e-03 +7.2153873359e+00 7.2154176687e+00 4.9935713700e-03 0.0000e+00 0.0000e+00
       11 -1    0    0    0    0 +5.2079142464e-19 +8.4125471825e-20 +1.8734939267e-16 5.1100000000e-04 5.1099893000e-04 0.0000e+00 1.0000e+00
       50  1    1    2    0    0 +2.0467918432e-02 +1.2138781627e-02 +7.1360031371e+00 7.1360445622e+00 4.9935713700e-03 0.0000e+00 0.0000e+00
       11  1    1    2    0    0 -4.1067780599e-04 -8.8988572519e-03 +7.9384198857e-02 7.9884106459e-02 5.1099893000e-04 0.0000e+00 1.0000e+00
<vert_displacement>
292.72484598094326
</vert_displacement>
</event>
<event>
 4   1200 +8.6263000e+09 2.62382300e-02 7.81665300e-03            nan
       50 -1    0    0    0    0 -4.6689861132e-02 -4.2514566812e-02 +1.9946376318e+01 1.9946476897e+01 4.9935713700e-03 0.0000e+00 0.0000e+00
       11 -1    0    0    0    0 -3.1509997928e-18 -2.8692180265e-18 +1.3461386717e-15 5.1100000000e-04 5.1099893000e-04 0.0000e+00 1.0000e+00
       50  1    1    2    0    0 -2.6655652418e-02 -2.3119220885e-02 +1.9274557623e+01 1.9274590567e+01 4.9935713700e-03 0.0000e+00 0.0000e+00
       11  1    1    2    0    0 -2.0034208713e-02 -1.9395345927e-02 +6.7181869561e-01 6.7239733034e-01 5.1099893000e-04 0.0000e+00 1.0000e+00
<vert_displacement>
179.65680981421102
</vert_displacement>
</event>
<event>
 4   1200 +8.6263000e+09 5.50877100e-02 7.81665300e-03            nan
       50 -1    0    0    0    0 +7.0530818939e-03 -2.1611606965e-02 +4.9891563997e+01 4.9891569426e+01 4.9935713700e-03 0.0000e+00 0.0000e+00
       11 -1    0    0    0    0 -7.5728492318e-19 +2.3204245133e-18 -5.3568255377e-15 5.1100000000e-04 5.1099893000e-04 0.0000e+00 1.0000e+00
       50  1    1    2    0    0 +5.9021890568e-02 -4.0457033541e-03 +4.6748499801e+01 4.6748537501e+01 4.9935713700e-03 0.0000e+00 0.0000e+00
       11  1    1    2    0    0 -5.1968808674e-02 -1.7565903611e-02 +3.1430641963e+00 3.1435429249e+00 5.1099893000e-04 0.0000e+00 1.0000e+00
<vert_displacement>
362.36567086692503
</vert_displacement>
</event>
<event>
 4   1200 +8.6263000e+09 1.90310200e-02 7.81665300e-03            nan
       50 -1    0    0    0    0 -6.9357559371e-03 +1.0835277482e-02 +9.8471220681e+00 9.8471317382e+00 4.9935713700e-03 0.0000e+00 0.0000e+00
       11 -1    0    0    0    0 +1.4662080916e-19 -2.2905609228e-19 -2.0816663946e-16 5.1100000000e-04 5.1099893000e-04 0.0000e+00 1.0000e+00
       50  1    1    2    0    0 +9.5751645754e-04 -6.2347423082e-03 +9.5052444506e+00 9.5052478553e+00 4.9935713700e-03 0.0000e+00 0.0000e+00
       11  1    1    2    0    0 -7.8932723947e-03 +1.7070019791e-02 +3.4187761756e-01 3.4239488290e-01 5.1099893000e-04 0.0000e+00 1.0000e+00
<vert_displacement>
222.87970431116239
</vert_displacement>
</event>
<event>
 4   1200 +8.6263000e+09 2.11760200e-02 7.81665300e-03            nan
       50 -1    0    0    0    0 +1.0659823924e-02 +2.0235977363e-03 +1.0889265772e+01 1.0889272322e+01 4.9935713700e-03 0.0000e+00 0.0000e+00
       11 -1    0    0    0    0 +2.3774396939e-19 +4.5131904777e-20 +2.4286116608e-16 5.1100000000e-04 5.1099893000e-04 0.0000e+00 1.0000e+00
       50  1    1    2    0    0 +1.2770031912e-02 -1.8478982483e-02 +1.0457736784e+01 1.0457762100e+01 4.9935713700e-03 0.0000e+00 0.0000e+00
       11  1    1    2    0    0 -2.1102079884e-03 +2.0502580219e-02 +4.3152898725e-01 4.3202122255e-01 5.1099893000e-04 0.0000e+00 1.0000e+00
<vert_displacement>
242.15941231422920
</vert_displacement>
</event>
<event>
 4   1200 +8.6263000e+09 1.73583800e-02 7.81665300e-03            nan
       50 -1    0    0    0    0 -2.7831397043e-03 +2.9609693208e-02 +1.4299530248e+01 1.4299562047e+01 4.9935713700e-03 0.0000e+00 0.0000e+00
       11 -1    0    0    0    0 -9.1835682269e-20 +9.7703553055e-19 +4.7184376497e-16 5.1100000000e-04 5.1099893000e-04 0.0000e+00 1.0000e+00
       50  1    1    2    0    0 +1.7781516604e-03 +1.3036862562e-02 +1.4023799766e+01 1.4023806827e+01 4.9935713700e-03 0.0000e+00 0.0000e+00
       11  1    1    2    0    0 -4.5612913646e-03 +1.6572830646e-02 +2.7573048248e-01 2.7626621977e-01 5.1099893000e-04 0.0000e+00 1.0000e+00
<vert_displacement>
2.1310569242490880
</vert_displacement>
</event>
<event>
 4   1200 +8.6263000e+09 5.65133500e-03 7.81665300e-03            nan
       50 -1    0    0    0    0 -1.7520924866e-02 -8.5994442901e-04 +2.1559804654e+01 2.1559812369e+01 4.9935713700e-03 0.0000e+00 0.0000e+00
       11 -1    0    0    0    0 -1.9285389526e-18 -9.4654611052e-20 +2.3731009296e-15 5.1100000000e-04 5.1099893000e-04 0.0000e+00 1.0000e+00
       50  1    1    2    0    0 -1.6455842287e-02 -3.2843912656e-03 +2.1552951966e+01 2.1552959077e+01 4.9935713700e-03 0.0000e+00 0.0000e+00
       11  1    1    2    0    0 -1.0650825789e-03 +2.4244468366e-03 +6.8526879032e-03 7.3642918714e-03 5.1099893000e-04 0.0000e+00 1.0000e+00
<vert_displacement>
187.86809106509878
</vert_displacement>
</event>
<event>
 4   1200 +8.6263000e+09 1.34431600e-02 7.81665300e-03            nan
       50 -1    0    0    0    0 -5.2722652627e-02 +4.3863762646e-02 +2.2285559832e+01 2.2285665924e+01 4.9935713700e-03 0.0000e+00 0.0000e+00
       11 -1    0    0    0    0 -1.0177792312e-18 +8.4676366603e-19 +4.3020938480e-16 5.1100000000e-04 5.1099893000e-04 0.0000e+00 1.0000e+00
       50  1    1    2    0    0 -4.0526429039e-02 +3.9591861000e-02 +2.2132105227e+01 2.2132178307e+01 4.9935713700e-03 0.0000e+00 0.0000e+00
       11  1    1    2    0    0 -1.2196223588e-02 +4.2719016459e-03 +1.5345460558e-01 1.5399861722e-01 5.1099893000e-04 0.0000e+00 1.0000e+00
<vert_displacement>
263.50876302144258
</vert_displacement>
</event>
<event>
 4   1200 +8.6263000e+09 2.34195400e-02 7.81665300e-03            nan
       50 -1    0    0    0    0 -2.1418001798e-03 +4.6180210368e-02 +2.3901172575e+01 2.3901217806e+01 4.9935713700e-03 0.0000e+00 0.0000e+00
       11 -1    0    0    0    0 +5.5961801570e-20 -1.2066147877e-18 -6.2449928318e-16 5.1100000000e-04 5.1099893000e-04 0.0000e+00 1.0000e+00
       50  1    1    2    0    0 -2.4095589540e-02 +5.1453691670e-02 +2.3377389718e+01 2.3377459294e+01 4.9935713700e-03 0.0000e+00 0.0000e+00
       11  1    1    2    0    0 +2.1953789360e-02 -5.2734813016e-03 +5.2378285772e-01 5.2426951240e-01 5.1099893000e-04 0.0000e+00 1.0000e+00
<vert_displacement>
300.70983989204677
</vert_displacement>
</event>
<event>
 4   1200 +8.6263000e+09 1.15004900e-02 7.81665300e-03            nan
       50 -1    0    0    0    0 -8.4028426211e-05 -6.0571023462e-03 +2.3876748001e+00 2.3876877062e+00 4.9935713700e-03 0.0000e+00 0.0000e+00
       11 -1    0    0    0    0 +6.9596077530e-21 +5.0167613925e-19 -1.9775783981e-16 5.1100000000e-04 5.1099893000e-04 0.0000e+00 1.0000e+00
       50  1    1    2    0    0 -4.0221559162e-04 +4.5771483676e-03 +2.2775285038e+00 2.2775386129e+00 4.9935713700e-03 0.0000e+00 0.0000e+00
       11  1    1    2    0    0 +3.1818716541e-04 -1.0634250714e-02 +1.1014629629e-01 1.1066009325e-01 5.1099893000e-04 0.0000e+00 1.0000e+00
<vert_displacement>
47.440182359024348
</vert_displacement>
</event>
<event>
 4   1200 +8.6263000e+09 8.35046900e-03 7.81665300e-03            nan
       50 -1    0    0    0    0 -6.0020309292e-03 -4.2779608193e-03 +2.2723518629e+00 2.2723693032e+00 4.9935713700e-03 0.0000e+00 0.0000e+00
       11 -1    0    0    0    0 -3.3906451388e-19 -2.4166898217e-19 +1.2836886195e-16 5.1100000000e-04 5.1099893000e-04 0.0000e+00 1.0000e+00
       50  1    1    2    0    0 -6.0166867148e-03 +2.4977949947e-03 +2.2276342285e+00 2.2276493511e+00 4.9935713700e-03 0.0000e+00 0.0000e+00
       11  1    1    2    0    0 +1.4655785648e-05 -6.7757558141e-03 +4.4717634401e-02 4.5230952101e-02 5.1099893000e-04 0.0000e+00 1.0000e+00
<vert_displacement>
208.34385677074664
</vert_displacement>
</event>
<event>
 4   1200 +8.6263000e+09 8.45324100e-03 7.81665300e-03            nan
       50 -1    0    0    0    0 -1.6551013054e-02 -1.3868753831e-02 +8.9449215024e+00 8.9449489600e+00 4.9935713700e-03 0.0000e+00 0.0000e+00
       11 -1    0    0    0    0 +1.1426863403e-18 +9.5750245064e-19 -6.1755975799e-16 5.1100000000e-04 5.1099893000e-04 0.0000e+00 1.0000e+00
       50  1    1    2    0    0 -9.9143601373e-03 -1.5693305545e-02 +8.8991734276e+00 8.8991941885e+00 4.9935713700e-03 0.0000e+00 0.0000e+00
       11  1    1    2    0    0 -6.6366529164e-03 +1.8245517146e-03 +4.5748074742e-02 4.6265771510e-02 5.1099893000e-04 0.0000e+00 1.0000e+00
<vert_displacement>
442.31570499129998
</vert_displacement>
</event>
<event>
 4   1200 +8.6263000e+09 1.85990500e-02 7.81665300e-03            nan
       50 -1    0    0    0    0 +7.3922278028e-03 +1.7535161377e-02 +1.3753187870e+01 1.3753201942e+01 4.9935713700e-03 0.0000e+00 0.0000e+00
       11 -1    0    0    0    0 +5.7808738978e-19 +1.3712856179e-18 +1.0755275256e-15 5.1100000000e-04 5.1099893000e-04 0.0000e+00 1.0000e+00
       50  1    1    2    0    0 +2.2863527791e-02 +2.5857123926e-02 +1.3431543290e+01 1.3431588567e+01 4.9935713700e-03 0.0000e+00 0.0000e+00
       11  1    1    2    0    0 -1.5471299988e-02 -8.3219625481e-03 +3.2164457995e-01 3.2212437523e-01 5.1099893000e-04 0.0000e+00 1.0000e+00
<vert_displacement>
274.75130036374583
</vert_displacement>
</event>
<event>
 4   1200 +8.6263000e+09 5.94701200e-03 7.81665300e-03            nan
       50 -1    0    0    0    0 +1.5109992774e-02 +1.8740700810e-02 +1.6540677850e+01 1.6540696121e+01 4.9935713700e-03 0.0000e+00 0.0000e+00
       11 -1    0    0    0    0 -1.6860963070e-18 -2.0912403401e-18 -1.8457438236e-15 5.1100000000e-04 5.1099893000e-04 0.0000e+00 1.0000e+00
       50  1    1    2    0    0 +1.8329414261e-02 +1.8808848456e-02 +1.6530461537e+01 1.6530483154e+01 4.9935713700e-03 0.0000e+00 0.0000e+00
       11  1    1    2    0    0 -3.2194214870e-03 -6.8147645432e-05 +1.0216312648e-02 1.0723967682e-02 5.1099893000e-04 0.0000e+00 1.0000e+00
<vert_displacement>
257.89416327719090
</vert_displacement>
</event>
<event>
 4   1200 +8.6263000e+09 8.64897000e-03 7.81665300e-03            nan
       50 -1    0    0    0    0 +2.2354572063e-02 -6.5673007608e-03 +9.1927619020e+00 9.1927927845e+00 4.9935713700e-03 0.0000e+00 0.0000e+00
       11 -1    0    0    0    0 -3.8809409693e-19 +1.1401384249e-19 -1.5959404719e-16 5.1100000000e-04 5.1099893000e-04 0.0000e+00 1.0000e+00
       50  1    1    2    0    0 +2.3313182966e-02 +4.4678948762e-04 +9.1437037630e+00 9.1437348576e+00 4.9935713700e-03 0.0000e+00 0.0000e+00
       11  1    1    2    0    0 -9.5861090316e-04 -7.0140902485e-03 +4.9058138999e-02 4.9568926948e-02 5.1099893000e-04 0.0000e+00 1.0000e+00
<vert_displacement>
263.30603293561410
</vert_displacement>
</event>
<event>
 4   1200 +8.6263000e+09 8.80009400e-03 7.81665300e-03            nan
       50 -1    0    0    0    0 -1.4587707622e-03 +1.2294812985e-03 +1.3172442033e+00 1.3172550499e+00 4.9935713700e-03 0.0000e+00 0.0000e+00
       11 -1    0    0    0    0 -1.5368820614e-19 +1.2953150704e-19 +1.3877773253e-16 5.1100000000e-04 5.1099893000e-04 0.0000e+00 1.0000e+00
       50  1    1    2    0    0 +5.4696660450e-03 +3.4863617814e-03 +1.2636312621e+00 1.2636577757e+00 4.9935713700e-03 0.0000e+00 0.0000e+00
       11  1    1    2    0    0 -6.9284368072e-03 -2.2568804830e-03 +5.3612941232e-02 5.4108274169e-02 5.1099893000e-04 0.0000e+00 1.0000e+00
<vert_displacement>
449.69185666979200
</vert_displacement>
</event>
<event>
 4   1200 +8.6263000e+09 1.76865200e-02 7.81665300e-03            nan
       50 -1    0    0    0    0 -2.6838783035e-03 -2.9954451498e-03 +6.5804657395e+00 6.5804688633e+00 4.9935713700e-03 0.0000e+00 0.0000e+00
       11 -1    0    0    0    0 -1.0754245584e-19 -1.2002687578e-19 +2.6367791910e-16 5.1100000000e-04 5.1099893000e-04 0.0000e+00 1.0000e+00
       50  1    1    2    0    0 +2.2164728628e-03 +1.3418513869e-02 +6.2855022250e+00 6.2855189226e+00 4.9935713700e-03 0.0000e+00 0.0000e+00
       11  1    1    2    0    0 -4.9003511664e-03 -1.6413959018e-02 +2.9496351446e-01 2.9546094069e-01 5.1099893000e-04 0.0000e+00 1.0000e+00
<vert_displacement>
256.37035389926842
</vert_displacement>
</event>
<event>
 4   1200 +8.6263000e+09 9.91744900e-03 7.81665300e-03            nan
       50 -1    0    0    0    0 -2.6025651288e-02 +1.5512546981e-02 +1.1989110914e+01 1.1989150238e+01 4.9935713700e-03 0.0000e+00 0.0000e+00
       11 -1    0    0    0    0 -3.3891126692e-18 +2.0200750761e-18 +1.5612461430e-15 5.1100000000e-04 5.1099893000e-04 0.0000e+00 1.0000e+00
       50  1    1    2    0    0 -1.7642483695e-02 +1.7816603052e-02 +1.1916846628e+01 1.1916874052e+01 4.9935713700e-03 0.0000e+00 0.0000e+00
       11  1    1    2    0    0 -8.3831675923e-03 -2.3040560706e-03 +7.2264286886e-02 7.2787186045e-02 5.1099893000e-04 0.0000e+00 1.0000e+00
<vert_displacement>
342.21603473780891
</vert_displacement>
</event>
<event>
 4   1200 +8.6263000e+09 5.45525700e-02 7.81665300e-03            nan
       50 -1    0    0    0    0 -9.7470816002e-02 -5.8196807842e-02 +3.4992996043e+01 3.4993180542e+01 4.9935713700e-03 0.0000e+00 0.0000e+00
       11 -1    0    0    0    0 +8.8907677952e-19 +5.3084023113e-19 -3.1918743993e-16 5.1100000000e-04 5.1099893000e-04 0.0000e+00 1.0000e+00
       50  1    1    2    0    0 -5.2709162420e-02 -1.2157886553e-02 +3.1817158076e+01 3.1817204450e+01 4.9935713700e-03 0.0000e+00 0.0000e+00
       11  1    1    2    0    0 -4.4761653583e-02 -4.6038921290e-02 +3.1758379673e+00 3.1764870916e+00 5.1099893000e-04 0.0000e+00 1.0000e+00
<vert_displacement>
487.66061982338942
</vert_displacement>
</event>
<event>
 4   1200 +8.6263000e+09 5.89182800e-03 7.81665300e-03            nan
       50 -1    0    0    0    0 -1.6586758333e-02 -1.2440994561e-03 +1.6281311892e+01 1.6281321154e+01 4.9935713700e-03 0.0000e+00 0.0000e+00
       11 -1    0    0    0    0 -1.6965762512e-18 -1.2725268850e-19 +1.6653336679e-15 5.1100000000e-04 5.1099893000e-04 0.0000e+00 1.0000e+00
       50  1    1    2    0    0 -1.8749814922e-02 +1.0053602441e-03 +1.6271736517e+01 1.6271748117e+01 4.9935713700e-03 0.0000e+00 0.0000e+00
       11  1    1    2    0    0 +2.1630565885e-03 -2.2494597003e-03 +9.5753748062e-03 1.0084037155e-02 5.1099893000e-04 0.0000e+00 1.0000e+00
<vert_displacement>
147.35427738002005
</vert_displacement>
</event>
<event>
 4   1200 +8.6263000e+09 1.15946500e-02 7.81665300e-03            nan
       50 -1    0    0    0    0 -2.8644358368e-02 -1.3056050402e-02 +1.1945150067e+01 1.1945192591e+01 4.9935713700e-03 0.0000e+00 0.0000e+00
       11 -1    0    0    0    0 -4.0100821535e-18 -1.8277887059e-18 +1.6722676239e-15 5.1100000000e-04 5.1099893000e-04 0.0000e+00 1.0000e+00
       50  1    1    2    0    0 -1.9422978899e-02 -7.5359779684e-03 +1.1837049435e+01 1.1837068822e+01 4.9935713700e-03 0.0000e+00 0.0000e+00
       11  1    1    2    0    0 -9.2213794692e-03 -5.5200724339e-03 +1.0810063257e-01 1.0863476847e-01 5.1099893000e-04 0.0000e+00 1.0000e+00
<vert_displacement>
89.898533366156698
</vert_displacement>
</event>
<event>
 4   1200 +8.6263000e+09 5.69863600e-03 7.81665300e-03            nan
       50 -1    0    0    0    0 +2.4058100486e-03 -1.1438473941e-02 +5.5879017671e+00 5.5879162235e+00 4.9935713700e-03 0.0000e+00 0.0000e+00
       11 -1    0    0    0    0 +8.6636294044e-20 -4.1191406293e-19 +2.0122748297e-16 5.1100000000e-04 5.1099893000e-04 0.0000e+00 1.0000e+00
       50  1    1    2    0    0 +5.0117392597e-04 -1.3404048537e-02 +5.5805116453e+00 5.5805299998e+00 4.9935713700e-03 0.0000e+00 0.0000e+00
       11  1    1    2    0    0 +1.9046361226e-03 +1.9655745957e-03 +7.3901217837e-03 7.8972236979e-03 5.1099893000e-04 0.0000e+00 1.0000e+00
<vert_displacement>
146.95073031419938
</vert_displacement>
</event>
<event>
 4   1200 +8.6263000e+09 2.91413700e-02 7.81665300e-03            nan
       50 -1    0    0    0    0 -8.0634906253e-03 -2.0898074721e-02 +1.3726503674e+01 1.3726522859e+01 4.9935713700e-03 0.0000e+00 0.0000e+00
       11 -1    0    0    0    0 -5.3805510321e-19 -1.3944724777e-18 +9.1593277576e-16 5.1100000000e-04 5.1099893000e-04 0.0000e+00 1.0000e+00
       50  1    1    2    0    0 +2.0908275085e-02 -1.5851724898e-02 +1.2865903339e+01 1.2865931062e+01 4.9935713700e-03 0.0000e+00 0.0000e+00
       11  1    1    2    0    0 -2.8971765710e-02 -5.0463498231e-03 +8.6060033491e-01 8.6110279666e-01 5.1099893000e-04 0.0000e+00 1.0000e+00
<vert_displacement>
346.56090984863783
</vert_displacement>
</event>
<event>
 4   1200 +8.6263000e+09 2.33612800e-02 7.81665300e-03            nan
       50 -1    0    0    0    0 -2.7484259903e-02 -2.5007622320e-02 +1.4866572260e+01 1.4866619537e+01 4.9935713700e-03 0.0000e+00 0.0000e+00
       11 -1    0    0    0    0 -3.7201468966e-19 -3.3849202741e-19 +2.0122729464e-16 5.1100000000e-04 5.1099893000e-04 0.0000e+00 1.0000e+00
       50  1    1    2    0    0 -3.6661577963e-02 -3.6809036336e-03 +1.4338155998e+01 1.4338204210e+01 4.9935713700e-03 0.0000e+00 0.0000e+00
       11  1    1    2    0    0 +9.1773180604e-03 -2.1326718686e-02 +5.2841626169e-01 5.2892632647e-01 5.1099893000e-04 0.0000e+00 1.0000e+00
<vert_displacement>
173.04297200427365
</vert_displacement>
</event>
<event>
 4   1200 +8.6263000e+09 4.12769200e-02 7.81665300e-03            nan
       50 -1    0    0    0    0 -1.3182998936e-02 +8.1815772051e-03 +3.3477032584e+01 3.3477036552e+01 4.9935713700e-03 0.0000e+00 0.0000e+00
       11 -1    0    0    0    0 +1.0602033889e-18 -6.5797895623e-19 -2.6922905456e-15 5.1100000000e-04 5.1099893000e-04 0.0000e+00 1.0000e+00
       50  1    1    2    0    0 -3.2452874058e-02 -2.8029562206e-02 +3.1744579485e+01 3.1744608841e+01 4.9935713700e-03 0.0000e+00 0.0000e+00
       11  1    1    2    0    0 +1.9269875122e-02 +3.6211139411e-02 +1.7324530993e+00 1.7329387113e+00 5.1099893000e-04 0.0000e+00 1.0000e+00
<vert_displacement>
325.18646633306406
</vert_displacement>
</event>
<event>
 4   1200 +8.6263000e+09 5.57038200e-02 7.81665300e-03            nan
       50 -1    0    0    0    0 -7.7424974469e-02 -8.1573524801e-03 +3.8702722921e+01 3.8702801547e+01 4.9935713700e-03 0.0000e+00 0.0000e+00
       11 -1    0    0    0    0 +1.0077795451e-17 +1.0617779376e-18 -5.0376267820e-15 5.1100000000e-04 5.1099893000e-04 0.0000e+00 1.0000e+00
       50  1    1    2    0    0 -1.0351199520e-01 +3.7374881837e-02 +3.5410735073e+01 3.5410906441e+01 4.9935713700e-03 0.0000e+00 0.0000e+00
       11  1    1    2    0    0 +2.6087020733e-02 -4.5532234317e-02 +3.2919878482e+00 3.2924061066e+00 5.1099893000e-04 0.0000e+00 1.0000e+00
<vert_displacement>
286.56460208443838
</vert_displacement>
</event>
<event>
 4   1200 +8.6263000e+09 7.64297600e-03 7.81665300e-03            nan
       50 -1    0    0    0    0 +3.0488409577e-02 +3.7567480830e-02 +1.7733128826e+01 1.7733195532e+01 4.9935713700e-03 0.0000e+00 0.0000e+00
       11 -1    0    0    0    0 -7.1579602458e-19 -8.8199593894e-19 -4.1633208466e-16 5.1100000000e-04 5.1099893000e-04 0.0000e+00 1.0000e+00
       50  1    1    2    0    0 +3.6163779823e-02 +3.6706904864e-02 +1.7700300361e+01 1.7700376070e+01 4.9935713700e-03 0.0000e+00 0.0000e+00
       11  1    1    2    0    0 -5.6753702462e-03 +8.6057596651e-04 +3.2828465422e-02 3.3330461747e-02 5.1099893000e-04 0.0000e+00 1.0000e+00
<vert_displacement>
148.45301330245601
</vert_displacement>
</event>
<event>
 4   1200 +8.6263000e+09 1.17832900e-02 7.81665300e-03            nan
       50 -1    0    0    0    0 +7.2330800428e-03 +1.5850471526e-04 +3.0405160882e+00 3.0405287962e+00 4.9935713700e-03 0.0000e+00 0.0000e+00
       11 -1    0    0    0    0 +7.1804926178e-19 +1.5735232170e-20 +3.0184103033e-16 5.1100000000e-04 5.1099893000e-04 0.0000e+00 1.0000e+00
       50  1    1    2    0    0 -1.6019693882e-03 +6.5281140854e-03 +2.9246038854e+00 2.9246158730e+00 4.9935713700e-03 0.0000e+00 0.0000e+00
       11  1    1    2    0    0 +8.8350494310e-03 -6.3696093701e-03 +1.1591220282e-01 1.1642392325e-01 5.1099893000e-04 0.0000e+00 1.0000e+00
<vert_displacement>
279.26807188125940
</vert_displacement>
</event>
<event>
 4   1200 +8.6263000e+09 5.35646000e-02 7.81665300e-03            nan
       50 -1    0    0    0    0 +5.2864476244e-02 +1.9583000634e-02 +1.7741173210e+01 1.7741263482e+01 4.9935713700e-03 0.0000e+00 0.0000e+00
       11 -1    0    0    0    0 +2.0676148958e-18 +7.6592272720e-19 +6.9388588718e-16 5.1100000000e-04 5.1099893000e-04 0.0000e+00 1.0000e+00
       50  1    1    2    0    0 +8.4159371704e-03 +5.6734030374e-02 +1.4283229504e+01 1.4283345531e+01 4.9935713700e-03 0.0000e+00 0.0000e+00
       11  1    1    2    0    0 +4.4448539074e-02 -3.7151029739e-02 +3.4579437062e+00 3.4584289509e+00 5.1099893000e-04 0.0000e+00 1.0000e+00
<vert_displacement>
231.44977416748438
</vert_displacement>
</event>
<event>
 4   1200 +8.6263000e+09 5.90628400e-03 7.81665300e-03            nan
       50 -1    0    0    0    0 -4.1679452350e-02 +2.0835534156e-03 +1.3139148498e+01 1.3139215719e+01 4.9935713700e-03 0.0000e+00 0.0000e+00
       11 -1    0    0    0    0 -1.6948589640e-18 +8.4725901716e-20 +5.3429213571e-16 5.1100000000e-04 5.1099893000e-04 0.0000e+00 1.0000e+00
       50  1    1    2    0    0 -4.1170041463e-02 -1.0355956019e-03 +1.3129408669e+01 1.3129474208e+01 4.9935713700e-03 0.0000e+00 0.0000e+00
       11  1    1    2    0    0 -5.0941088724e-04 +3.1191490174e-03 +9.7398290784e-03 1.0252510933e-02 5.1099893000e-04 0.0000e+00 1.0000e+00
<vert_displacement>
474.75681749457874
</vert_displacement>
</event>
<event>
 4   1200 +8.6263000e+09 9.56314500e-03 7.81665300e-03            nan
       50 -1    0    0    0    0 +2.3222530114e-02 +1.4838824237e-02 +7.3563950508e+00 7.3564483656e+00 4.9935713700e-03 0.0000e+00 0.0000e+00
       11 -1    0    0    0    0 +2.4313902437e-18 +1.5536193645e-18 +7.7021181874e-16 5.1100000000e-04 5.1099893000e-04 0.0000e+00 1.0000e+00
       50  1    1    2    0    0 +2.5299792241e-02 +6.8770031253e-03 +7.2907251461e+00 7.2907739963e+00 4.9935713700e-03 0.0000e+00 0.0000e+00
       11  1    1    2    0    0 -2.0772621265e-03 +7.9618211117e-03 +6.5669904678e-02 6.6185369332e-02 5.1099893000e-04 0.0000e+00 1.0000e+00
<vert_displacement>
183.20694971592019
</vert_displacement>
</event>
<event>
 4   1200 +8.6263000e+09 2.78938700e-02 7.81665300e-03            nan
       50 -1    0    0    0    0 +8.9836744087e-02 +5.2443105949e-02 +2.8620384042e+01 2.8620573519e+01 4.9935713700e-03 0.0000e+00 0.0000e+00
       11 -1    0    0    0    0 +0.0000000000e+00 +0.0000000000e+00 +0.0000000000e+00 5.1100000000e-04 5.1099893000e-04 0.0000e+00 1.0000e+00
       50  1    1    2    0    0 +1.0792385293e-01 +6.9342185404e-02 +2.7863320261e+01 2.7863616003e+01 4.9935713700e-03 0.0000e+00 0.0000e+00
       11  1    1    2    0    0 -1.8087108840e-02 -1.6899079456e-02 +7.5706378138e-01 7.5746851590e-01 5.1099893000e-04 0.0000e+00 1.0000e+00
<vert_displacement>
46.669217744656621
</vert_displacement>
</event>
<event>
 4   1200 +8.6263000e+09 3.71718200e-02 7.81665300e-03            nan
       50 -1    0    0    0    0 +9.7533372730e-02 +7.3498488113e-02 +2.9742082199e+01 2.9742333353e+01 4.9935713700e-03 0.0000e+00 0.0000e+00
       11 -1    0    0    0    0 -3.9592935932e-18 -2.9836156072e-18 -1.2073573609e-15 5.1100000000e-04 5.1099893000e-04 0.0000e+00 1.0000e+00
       50  1    1    2    0    0 +1.1477639274e-01 +4.0373043009e-02 +2.8349184780e+01 2.8349446312e+01 4.9935713700e-03 0.0000e+00 0.0000e+00
       11  1    1    2    0    0 -1.7243020013e-02 +3.3125445104e-02 +1.3928974194e+00 1.3933980404e+00 5.1099893000e-04 0.0000e+00 1.0000e+00
<vert_displacement>
220.00919980593687
</vert_displacement>
</event>
<event>
 4   1200 +8.6263000e+09 1.49971300e-02 7.81665300e-03            nan
       50 -1    0    0    0    0 -1.9962467620e-02 +2.7566467064e-02 +1.1793598789e+01 1.1793648958e+01 4.9935713700e-03 0.0000e+00 0.0000e+00
       11 -1    0    0    0    0 -9.5135221342e-19 +1.3137363555e-18 +5.6204806570e-16 5.1100000000e-04 5.1099893000e-04 0.0000e+00 1.0000e+00
       50  1    1    2    0    0 -2.9586604020e-02 +1.7063501803e-02 +1.1594557937e+01 1.1594609318e+01 4.9935713700e-03 0.0000e+00 0.0000e+00
       11  1    1    2    0    0 +9.6241363999e-03 +1.0502965261e-02 +1.9904085208e-01 1.9955064068e-01 5.1099893000e-04 0.0000e+00 1.0000e+00
<vert_displacement>
239.82547255151525
</vert_displacement>
</event>
<event>
 4   1200 +8.6263000e+09 1.72294700e-02 7.81665300e-03            nan
       50 -1    0    0    0    0 -1.0484122167e-02 -3.4693837152e-02 +2.0524647179e+01 2.0524679786e+01 4.9935713700e-03 0.0000e+00 0.0000e+00
       11 -1    0    0    0    0 +3.2608721383e-19 +1.0790809677e-18 -6.3837724386e-16 5.1100000000e-04 5.1099893000e-04 0.0000e+00 1.0000e+00
       50  1    1    2    0    0 +3.1082816748e-03 -2.4704468607e-02 +2.0255052552e+01 2.0255068471e+01 4.9935713700e-03 0.0000e+00 0.0000e+00
       11  1    1    2    0    0 -1.3592403842e-02 -9.9893685446e-03 +2.6959462701e-01 2.7012231481e-01 5.1099893000e-04 0.0000e+00 1.0000e+00
<vert_displacement>
96.286931253128841
</vert_displacement>
</event>
<event>
 4   1200 +8.6263000e+09 1.33703600e-02 7.81665300e-03            nan
       50 -1    0    0    0    0 +1.9065245913e-01 +5.3142171834e-02 +5.5576946888e+01 5.5577299528e+01 4.9935713700e-03 0.0000e+00 0.0000e+00
       11 -1    0    0    0    0 +6.1412238157e-18 +1.7117952361e-18 +1.7902232753e-15 5.1100000000e-04 5.1099893000e-04 0.0000e+00 1.0000e+00
       50  1    1    2    0    0 +2.0070692066e-01 +4.6512622311e-02 +5.5425986898e+01 5.5426370034e+01 4.9935713700e-03 0.0000e+00 0.0000e+00
       11  1    1    2    0    0 -1.0054461530e-02 +6.6295495226e-03 +1.5095999058e-01 1.5144049326e-01 5.1099893000e-04 0.0000e+00 1.0000e+00
<vert_displacement>
448.66557305628044
</vert_displacement>
</event>
<event>
 4   1200 +8.6263000e+09 1.63566300e-02 7.81665300e-03            nan
       50 -1    0    0    0    0 +1.4972512068e-01 +9.5818751788e-02 +5.7039345071e+01 5.7039622280e+01 4.9935713700e-03 0.0000e+00 0.0000e+00
       11 -1    0    0    0    0 -1.9234114537e-17 -1.2309149181e-17 -7.3274363795e-15 5.1100000000e-04 5.1099893000e-04 0.0000e+00 1.0000e+00
       50  1    1    2    0    0 +1.4281656212e-01 +1.0967065877e-01 +5.6800958846e+01 5.6801244485e+01 4.9935713700e-03 0.0000e+00 0.0000e+00
       11  1    1    2    0    0 +6.9085585606e-03 -1.3851906985e-02 +2.3838622438e-01 2.3888879548e-01 5.1099893000e-04 0.0000e+00 1.0000e+00
<vert_displacement>
103.80094241382152
</vert_displacement>
</event>
<event>
 4   1200 +8.6263000e+09 1.52112500e-02 7.81665300e-03            nan
       50 -1    0    0    0    0 +5.0399678475e-03 +4.9410968097e-03 +3.3084449874e+00 3.3084562844e+00 4.9935713700e-03 0.0000e+00 0.0000e+00
       11 -1    0    0    0    0 +2.6426102539e-19 +2.5907691259e-19 +1.7347195285e-16 5.1100000000e-04 5.1099893000e-04 0.0000e+00 1.0000e+00
       50  1    1    2    0    0 +8.3165338710e-03 +1.8526449047e-02 +3.0921442364e+00 3.0922149519e+00 4.9935713700e-03 0.0000e+00 0.0000e+00
       11  1    1    2    0    0 -3.2765660235e-03 -1.3585352237e-02 +2.1630075092e-01 2.1675233251e-01 5.1099893000e-04 0.0000e+00 1.0000e+00
<vert_displacement>
165.08506551546722
</vert_displacement>
</event>
<event>
 4   1200 +8.6263000e+09 1.29963700e-02 7.81665300e-03            nan
       50 -1    0    0    0    0 -8.8902161435e-04 -7.8823765411e-03 +4.4579401324e+00 4.4579499865e+00 4.9935713700e-03 0.0000e+00 0.0000e+00
       11 -1    0    0    0    0 +1.7574030210e-19 +1.5581749782e-18 -8.8123813072e-16 5.1100000000e-04 5.1099893000e-04 0.0000e+00 1.0000e+00
       50  1    1    2    0    0 -1.0933979836e-02 -1.4142780848e-02 +4.3122539292e+00 4.3122938740e+00 4.9935713700e-03 0.0000e+00 0.0000e+00
       11  1    1    2    0    0 +1.0044958221e-02 +6.2604043071e-03 +1.4568620315e-01 1.4616711243e-01 5.1099893000e-04 0.0000e+00 1.0000e+00
<vert_displacement>
448.84922631595890
</vert_displacement>
</event>
<event>
 4   1200 +8.6263000e+09 1.67379100e-02 7.81665300e-03            nan
       50 -1    0    0    0    0 -1.8889690681e-02 +7.9742484918e-04 +8.1740483753e+00 8.1740717659e+00 4.9935713700e-03 0.0000e+00 0.0000e+00
       11 -1    0    0    0    0 -2.5496105794e-18 +1.0763134591e-19 +1.1032811795e-15 5.1100000000e-04 5.1099893000e-04 0.0000e+00 1.0000e+00
       50  1    1    2    0    0 -1.0458310272e-02 -1.3149953570e-02 +7.9161638109e+00 7.9161832163e+00 4.9935713700e-03 0.0000e+00 0.0000e+00
       11  1    1    2    0    0 -8.4313804085e-03 +1.3947378420e-02 +2.5788456445e-01 2.5839954961e-01 5.1099893000e-04 0.0000e+00 1.0000e+00
<vert_displacement>
262.61376057073619
</vert_displacement>
</event>
<event>
 4   1200 +8.6263000e+09 1.52867100e-02 7.81665300e-03            nan
       50 -1    0    0    0    0 +1.2180983401e-02 -1.1118208240e-02 +7.8092876500e+00 7.8093066611e+00 4.9935713700e-03 0.0000e+00 0.0000e+00
       11 -1    0    0    0    0 +1.0606846544e-18 -9.6814128030e-19 +6.8001008617e-16 5.1100000000e-04 5.1099893000e-04 0.0000e+00 1.0000e+00
       50  1    1    2    0    0 +2.4022535833e-02 -1.8607936352e-02 +7.5993297008e+00 7.5993920925e+00 4.9935713700e-03 0.0000e+00 0.0000e+00
       11  1    1    2    0    0 -1.1841552432e-02 +7.4897281112e-03 +2.0995794922e-01 2.1042556867e-01 5.1099893000e-04 0.0000e+00 1.0000e+00
<vert_displacement>
492.43548055774613
</vert_displacement>
</event>
<event>
 4   1200 +8.6263000e+09 1.04332200e-02 7.81665300e-03            nan
       50 -1    0    0    0    0 -3.7887718359e-02 -1.4411346366e-02 +1.1114275733e+01 1.1114350776e+01 4.9935713700e-03 0.0000e+00 0.0000e+00
       11 -1    0    0    0    0 -2.7438643260e-18 -1.0436833068e-18 +8.0490633941e-16 5.1100000000e-04 5.1099893000e-04 0.0000e+00 1.0000e+00
       50  1    1    2    0    0 -4.1665817550e-02 -6.0923972189e-03 +1.1031542349e+01 1.1031623847e+01 4.9935713700e-03 0.0000e+00 0.0000e+00
       11  1    1    2    0    0 +3.7780991906e-03 -8.3189491475e-03 +8.2733384088e-02 8.3237929522e-02 5.1099893000e-04 0.0000e+00 1.0000e+00
<vert_displacement>
463.56160798007909
</vert_displacement>
</event>
<event>
 4   1200 +8.6263000e+09 6.72575300e-03 7.81665300e-03            nan
       50 -1    0    0    0    0 -6.7234336665e-03 -6.7443190242e-03 +1.4283691620e+01 1.4283695668e+01 4.9935713700e-03 0.0000e+00 0.0000e+00
       11 -1    0    0    0    0 -4.8992778358e-19 -4.9144967217e-19 +1.0408338543e-15 5.1100000000e-04 5.1099893000e-04 0.0000e+00 1.0000e+00
       50  1    1    2    0    0 -3.1278357603e-03 -9.4623656268e-03 +1.4263800550e+01 1.4263804906e+01 4.9935713700e-03 0.0000e+00 0.0000e+00
       11  1    1    2    0    0 -3.5955979063e-03 +2.7180466026e-03 +1.9891070067e-02 2.0401761933e-02 5.1099893000e-04 0.0000e+00 1.0000e+00
<vert_displacement>
100.64468534498270
</vert_displacement>
</event>
<event>
 4   1200 +8.6263000e+09 1.38574700e-02 7.81665300e-03            nan
       50 -1    0    0    0    0 -5.9790350072e-02 +2.8933558958e-02 +1.8206406734e+01 1.8206528586e+01 4.9935713700e-03 0.0000e+00 0.0000e+00
       11 -1    0    0    0    0 -8.2034533569e-19 +3.9697894572e-19 +2.4979851809e-16 5.1100000000e-04 5.1099893000e-04 0.0000e+00 -1.0000e+00
       50  1    1    2    0    0 -4.9049988188e-02 +3.6613868124e-02 +1.8041430120e+01 1.8041534640e+01 4.9935713700e-03 0.0000e+00 0.0000e+00
       11  1    1    2    0    0 -1.0740361884e-02 -7.6803091665e-03 +1.6497661437e-01 1.6550494534e-01 5.1099893000e-04 0.0000e+00 -1.0000e+00
<vert_displacement>
1.4600833492274923
</vert_displacement>
</event>
<event>
 4   1200 +8.6263000e+09 1.24187600e-02 7.81665300e-03            nan
       50 -1    0    0    0    0 +4.4793741354e-02 -3.2662470320e-02 +2.2407886250e+01 2.2407955383e+01 4.9935713700e-03 0.0000e+00 0.0000e+00
       11 -1    0    0    0    0 -2.2193477002e-19 +1.6182925604e-19 -1.1102196269e-16 5.1100000000e-04 5.1099893000e-04 0.0000e+00 1.0000e+00
       50  1    1    2    0    0 +4.3083398372e-02 -4.3753969122e-02 +2.2280640278e+01 2.2280725453e+01 4.9935713700e-03 0.0000e+00 0.0000e+00
       11  1    1    2    0    0 +1.7103429815e-03 +1.1091498803e-02 +1.2724597272e-01 1.2774093045e-01 5.1099893000e-04 0.0000e+00 1.0000e+00
<vert_displacement>
109.41602992440274
</vert_displacement>
</event>
<event>
 4   1200 +8.6263000e+09 1.45975900e-02 7.81665300e-03            nan
       50 -1    0    0    0    0 -1.4581578966e-02 +5.0540196620e-02 +2.9851487247e+01 2.9851534009e+01 4.9935713700e-03 0.0000e+00 0.0000e+00
       11 -1    0    0    0    0 +1.6065953123e-18 -5.5685082640e-18 -3.2890306042e-15 5.1100000000e-04 5.1099893000e-04 0.0000e+00 1.0000e+00
       50  1    1    2    0    0 -2.7538828520e-02 +4.5994474166e-02 +2.9666230812e+01 2.9666279669e+01 4.9935713700e-03 0.0000e+00 0.0000e+00
       11  1    1    2    0    0 +1.2957249555e-02 +4.5457224540e-03 +1.8525643464e-01 1.8576534016e-01 5.1099893000e-04 0.0000e+00 1.0000e+00
<vert_displacement>
472.88941248025685
</vert_displacement>
</event>
<event>
 4   1200 +8.6263000e+09 2.33543000e-02 7.81665300e-03            nan
       50 -1    0    0    0    0 +4.9618313280e-03 -8.6742502923e-02 +3.6912355330e+01 3.6912457922e+01 4.9935713700e-03 0.0000e+00 0.0000e+00
       11 -1    0    0    0    0 +1.3431415220e-19 -2.3480737192e-18 +9.9919795420e-16 5.1100000000e-04 5.1099893000e-04 0.0000e+00 1.0000e+00
       50  1    1    2    0    0 +8.4387270123e-03 -1.0806552095e-01 +3.6395780320e+01 3.6395942074e+01 4.9935713700e-03 0.0000e+00 0.0000e+00
       11  1    1    2    0    0 -3.4768956843e-03 +2.1323018028e-02 +5.1657500988e-01 5.1702684829e-01 5.1099893000e-04 0.0000e+00 1.0000e+00
<vert_displacement>
314.74394369049730
</vert_displacement>
</event>
<event>
 4   1200 +8.6263000e+09 2.52651800e-02 7.81665300e-03            nan
       50 -1    0    0    0    0 -4.7128220037e-02 +1.2122196079e-02 +1.5886157194e+01 1.5886232509e+01 4.9935713700e-03 0.0000e+00 0.0000e+00
       11 -1    0    0    0    0 +2.1408376346e-18 -5.5066059272e-19 -7.2164158039e-16 5.1100000000e-04 5.1099893000e-04 0.0000e+00 1.0000e+00
       50  1    1    2    0    0 -6.8956123696e-02 +1.8896228993e-02 +1.5261263471e+01 1.5261431770e+01 4.9935713700e-03 0.0000e+00 0.0000e+00
       11  1    1    2    0    0 +2.1827903658e-02 -6.7740329137e-03 +6.2489372280e-01 6.2531173891e-01 5.1099893000e-04 0.0000e+00 1.0000e+00
<vert_displacement>
124.51628153125169
</vert_displacement>
</event>
<event>
 4   1200 +8.6263000e+09 1.16404500e-02 7.81665300e-03            nan
       50 -1    0    0    0    0 +2.6602476853e-02 -2.4674504432e-02 +9.4863149152e+00 9.4863856199e+00 4.9935713700e-03 0.0000e+00 0.0000e+00
       11 -1    0    0    0    0 +2.1793632805e-18 -2.0214173748e-18 +7.7715043255e-16 5.1100000000e-04 5.1099893000e-04 0.0000e+00 1.0000e+00
       50  1    1    2    0    0 +1.9376868198e-02 -1.6471798535e-02 +9.3768994750e+00 9.3769352927e+00 4.9935713700e-03 0.0000e+00 0.0000e+00
       11  1    1    2    0    0 +7.2256086548e-03 -8.2027058971e-03 +1.0941544022e-01 1.0996132722e-01 5.1099893000e-04 0.0000e+00 1.0000e+00
<vert_displacement>
208.63733943334068
</vert_displacement>
</event>
<event>
 4   1200 +8.6263000e+09 1.51723900e-02 7.81665300e-03            nan
       50 -1    0    0    0    0 -2.0692414906e-02 +3.0417876082e-03 +9.0073715386e+00 9.0073972044e+00 4.9935713700e-03 0.0000e+00 0.0000e+00
       11 -1    0    0    0    0 -2.0722661340e-19 +3.0462338379e-20 +9.0205377579e-17 5.1100000000e-04 5.1099893000e-04 0.0000e+00 1.0000e+00
       50  1    1    2    0    0 -9.0798011008e-03 +1.1981087782e-02 +8.8018324170e+00 8.8018466711e+00 4.9935713700e-03 0.0000e+00 0.0000e+00
       11  1    1    2    0    0 -1.1612613805e-02 -8.9393001739e-03 +2.0553912160e-01 2.0606153332e-01 5.1099893000e-04 0.0000e+00 1.0000e+00
<vert_displacement>
402.14462207847157
</vert_displacement>
</event>
<event>
 4   1200 +8.6263000e+09 9.93743400e-03 7.81665300e-03            nan
       50 -1    0    0    0    0 -1.0535018728e-02 -6.1493871488e-03 +4.8796477434e+00 4.8796655456e+00 4.9935713700e-03 0.0000e+00 0.0000e+00
       11 -1    0    0    0    0 -1.7976989978e-19 -1.0493334089e-19 +8.3266466669e-17 5.1100000000e-04 5.1099893000e-04 0.0000e+00 1.0000e+00
       50  1    1    2    0    0 -4.0684472781e-03 -1.1889890274e-02 +4.8063109847e+00 4.8063300073e+00 4.9935713700e-03 0.0000e+00 0.0000e+00
       11  1    1    2    0    0 -6.4665714499e-03 +5.7405031255e-03 +7.3336758723e-02 7.3846538324e-02 5.1099893000e-04 0.0000e+00 1.0000e+00
<vert_displacement>
313.48722778631640
</vert_displacement>
</event>
<event>
 4   1200 +8.6263000e+09 1.41928900e-02 7.81665300e-03            nan
       50 -1    0    0    0    0 +9.0146494685e-03 +1.3267491117e-02 +1.2102284488e+01 1.2102296148e+01 4.9935713700e-03 0.0000e+00 0.0000e+00
       11 -1    0    0    0    0 +9.9753619103e-19 +1.4681438918e-18 +1.3392053472e-15 5.1100000000e-04 5.1099893000e-04 0.0000e+00 -1.0000e+00
       50  1    1    2    0    0 +2.2105291768e-02 +1.4380185566e-02 +1.1927020251e+01 1.1927050450e+01 4.9935713700e-03 0.0000e+00 0.0000e+00
       11  1    1    2    0    0 -1.3090642300e-02 -1.1126944490e-03 +1.7526423765e-01 1.7575669866e-01 5.1099893000e-04 0.0000e+00 -1.0000e+00
<vert_displacement>
44.554209354414965
</vert_displacement>
</event>
<event>
 4   1200 +8.6263000e+09 1.91154600e-02 7.81665300e-03            nan
       50 -1    0    0    0    0 -9.5619419264e-02 +2.0066295486e-02 +3.7446785619e+01 3.7446913409e+01 4.9935713700e-03 0.0000e+00 0.0000e+00
       11 -1    0    0    0    0 +9.3906617126e-18 -1.9706853920e-18 -3.6776012517e-15 5.1100000000e-04 5.1099893000e-04 0.0000e+00 1.0000e+00
       50  1    1    2    0    0 -1.1082632479e-01 +2.8961946326e-02 +3.7110580470e+01 3.7110757592e+01 4.9935713700e-03 0.0000e+00 0.0000e+00
       11  1    1    2    0    0 +1.5206905529e-02 -8.8956508396e-03 +3.3620514879e-01 3.3666681716e-01 5.1099893000e-04 0.0000e+00 1.0000e+00
<vert_displacement>
321.14802830739256
</vert_displacement>
</event>
<event>
 4   1200 +8.6263000e+09 1.09376900e-02 7.81665300e-03            nan
       50 -1    0    0    0    0 +7.2372228929e-02 +1.8461897383e-02 +3.1529318359e+01 3.1529407221e+01 4.9935713700e-03 0.0000e+00 0.0000e+00
       11 -1    0    0    0    0 -8.6008258666e-19 -2.1940399917e-19 -3.7469921946e-16 5.1100000000e-04 5.1099893000e-04 0.0000e+00 1.0000e+00
       50  1    1    2    0    0 +7.0809034893e-02 +2.8044651810e-02 +3.1436381684e+01 3.1436474337e+01 4.9935713700e-03 0.0000e+00 0.0000e+00
       11  1    1    2    0    0 +1.5631940351e-03 -9.5827544278e-03 +9.2936675183e-02 9.3443884081e-02 5.1099893000e-04 0.0000e+00 1.0000e+00
<vert_displacement>
372.22674621730511
</vert_displacement>
</event>
<event>
 4   1200 +8.6263000e+09 9.93851900e-03 7.81665300e-03            nan
       50 -1    0    0    0    0 +3.4221104869e-03 +1.0141678690e-03 +2.3570149385e+00 2.3570229306e+00 4.9935713700e-03 0.0000e+00 0.0000e+00
       11 -1    0    0    0    0 -1.1585620049e-19 -3.4334845822e-20 -7.9797188403e-17 5.1100000000e-04 5.1099893000e-04 0.0000e+00 1.0000e+00
       50  1    1    2    0    0 +8.1343255343e-03 -6.1313334807e-03 +2.2823576351e+00 2.2823858286e+00 4.9935713700e-03 0.0000e+00 0.0000e+00
       11  1    1    2    0    0 -4.7122150474e-03 +7.1455013497e-03 +7.4657303380e-02 7.5148101959e-02 5.1099893000e-04 0.0000e+00 1.0000e+00
<vert_displacement>
86.671630573713614
</vert_displacement>
</event>
<event>
 4   1200 +8.6263000e+09 1.40199100e-02 7.81665300e-03            nan
       50 -1    0    0    0    0 +4.1108043943e-02 +4.4368337713e-02 +3.7229445895e+01 3.7229495364e+01 4.9935713700e-03 0.0000e+00 0.0000e+00
       11 -1    0    0    0    0 +4.0454220396e-18 +4.3662659185e-18 +3.6637311461e-15 5.1100000000e-04 5.1099893000e-04 0.0000e+00 1.0000e+00
       50  1    1    2    0    0 +2.9063618189e-02 +3.8598993259e-02 +3.7060770823e+01 3.7060802656e+01 4.9935713700e-03 0.0000e+00 0.0000e+00
       11  1    1    2    0    0 +1.2044425754e-02 +5.7693444538e-03 +1.6867507243e-01 1.6920370772e-01 5.1099893000e-04 0.0000e+00 1.0000e+00
<vert_displacement>
158.32200679224007
</vert_displacement>
</event>
<event>
 4   1200 +8.6263000e+09 8.31124600e-03 7.81665300e-03            nan
       50 -1    0    0    0    0 +7.3498758860e-03 -6.4961984049e-04 +4.7886952384e+00 4.7887035265e+00 4.9935713700e-03 0.0000e+00 0.0000e+00
       11 -1    0    0    0    0 -3.6210244348e-19 +3.2004476705e-20 -2.3592211268e-16 5.1100000000e-04 5.1099893000e-04 0.0000e+00 1.0000e+00
       50  1    1    2    0    0 +1.3294924346e-02 -3.4716595412e-03 +4.7450913199e+00 4.7451138424e+00 4.9935713700e-03 0.0000e+00 0.0000e+00
       11  1    1    2    0    0 -5.9450484601e-03 +2.8220397007e-03 +4.3603918555e-02 4.4100684150e-02 5.1099893000e-04 0.0000e+00 1.0000e+00
<vert_displacement>
181.34187826748578
</vert_displacement>
</event>
<event>
 4   1200 +8.6263000e+09 5.10233500e-03 7.81665300e-03            nan
       50 -1    0    0    0    0 +3.7899364579e-02 -2.1425450040e-02 +1.3650748980e+01 1.3650819318e+01 4.9935713700e-03 0.0000e+00 0.0000e+00
       11 -1    0    0    0    0 +2.0035345026e-18 -1.1326477070e-18 +7.2164129588e-16 5.1100000000e-04 5.1099893000e-04 0.0000e+00 1.0000e+00
       50  1    1    2    0    0 +3.6891452409e-02 -2.1126826016e-02 +1.3649677691e+01 1.3649744808e+01 4.9935713700e-03 0.0000e+00 0.0000e+00
       11  1    1    2    0    0 +1.0079121702e-03 -2.9862402401e-04 +1.0712894536e-03 1.5855107223e-03 5.1099893000e-04 0.0000e+00 1.0000e+00
<vert_displacement>
201.44541194231820
</vert_displacement>
</event>
<event>
 4   1200 +8.6263000e+09 1.68427400e-02 7.81665300e-03            nan
       50 -1    0    0    0    0 -5.6830062072e-03 +1.1113838353e-03 +2.3906777671e+00 2.3906899953e+00 4.9935713700e-03 0.0000e+00 0.0000e+00
       11 -1    0    0    0    0 -7.6700644589e-19 +1.4999782411e-19 +3.2265762002e-16 5.1100000000e-04 5.1099893000e-04 0.0000e+00 1.0000e+00
       50  1    1    2    0    0 +1.7997268114e-04 -1.4252090113e-02 +2.1023383749e+00 2.1023926210e+00 4.9935713700e-03 0.0000e+00 0.0000e+00
       11  1    1    2    0    0 -5.8629788884e-03 +1.5363473948e-02 +2.8833939218e-01 2.8880837428e-01 5.1099893000e-04 0.0000e+00 1.0000e+00
<vert_displacement>
61.325458029695945
</vert_displacement>
</event>
<event>
 4   1200 +8.6263000e+09 2.09465100e-02 7.81665300e-03            nan
       50 -1    0    0    0    0 +3.5452379010e-02 +1.1721916283e-01 +4.5751418700e+01 4.5751582871e+01 4.9935713700e-03 0.0000e+00 0.0000e+00
       11 -1    0    0    0    0 -2.2905464772e-18 -7.5734251971e-18 -2.9559582137e-15 5.1100000000e-04 5.1099893000e-04 0.0000e+00 1.0000e+00
       50  1    1    2    0    0 +1.4833892031e-02 +1.1745820902e-01 +4.5342865305e+01 4.5343020140e+01 4.9935713700e-03 0.0000e+00 0.0000e+00
       11  1    1    2    0    0 +2.0618486980e-02 -2.3904618177e-04 +4.0855339532e-01 4.0907373064e-01 5.1099893000e-04 0.0000e+00 1.0000e+00
<vert_displacement>
350.93069622674722
</vert_displacement>
</event>
<event>
 4   1200 +8.6263000e+09 8.04743200e-03 7.81665300e-03            nan
       50 -1    0    0    0    0 -2.8088415578e-02 -7.3652815632e-03 +8.2295643793e+00 8.2296171245e+00 4.9935713700e-03 0.0000e+00 0.0000e+00
       11 -1    0    0    0    0 -1.5630824040e-18 -4.0986797494e-19 +4.5796414677e-16 5.1100000000e-04 5.1099893000e-04 0.0000e+00 1.0000e+00
       50  1    1    2    0    0 -3.4241874144e-02 -7.8754137284e-03 +8.1903852828e+00 8.1904621692e+00 4.9935713700e-03 0.0000e+00 0.0000e+00
       11  1    1    2    0    0 +6.1534585664e-03 +5.1013216521e-04 +3.9179096508e-02 3.9665955305e-02 5.1099893000e-04 0.0000e+00 1.0000e+00
<vert_displacement>
232.67512324725928
</vert_displacement>
</event>
<event>
 4   1200 +8.6263000e+09 7.60730500e-03 7.81665300e-03            nan
       50 -1    0    0    0    0 -3.2039038494e-02 -2.1267039562e-03 +1.0365813220e+01 1.0365864154e+01 4.9935713700e-03 0.0000e+00 0.0000e+00
       11 -1    0    0    0    0 -1.3726007527e-18 -9.1111206459e-20 +4.4408707927e-16 5.1100000000e-04 5.1099893000e-04 0.0000e+00 1.0000e+00
       50  1    1    2    0    0 -3.2129324767e-02 -7.8558491124e-03 +1.0333482605e+01 1.0333536747e+01 4.9935713700e-03 0.0000e+00 0.0000e+00
       11  1    1    2    0    0 +9.0286273594e-05 +5.7291451562e-03 +3.2330614551e-02 3.2838407589e-02 5.1099893000e-04 0.0000e+00 1.0000e+00
<vert_displacement>
442.55808723115774
</vert_displacement>
</event>
<event>
 4   1200 +8.6263000e+09 2.42997800e-02 7.81665300e-03            nan
       50 -1    0    0    0    0 -7.4725484542e-03 +3.2387023480e-03 +3.1556244251e+00 3.1556388855e+00 4.9935713700e-03 0.0000e+00 0.0000e+00
       11 -1    0    0    0    0 -4.5186106909e-19 +1.9584262510e-19 +1.9081894685e-16 5.1100000000e-04 5.1099893000e-04 0.0000e+00 1.0000e+00
       50  1    1    2    0    0 -2.9477102683e-02 +6.0212013061e-04 +2.4374333034e+00 2.4376167267e+00 4.9935713700e-03 0.0000e+00 0.0000e+00
       11  1    1    2    0    0 +2.2004554229e-02 +2.6365822174e-03 +7.1819112165e-01 7.1853315881e-01 5.1099893000e-04 0.0000e+00 1.0000e+00
<vert_displacement>
482.47381794908313
</vert_displacement>
</event>
<event>
 4   1200 +8.6263000e+09 1.37557600e-02 7.81665300e-03            nan
       50 -1    0    0    0    0 -1.1352012115e-02 -2.0211569946e-02 +9.0955544334e+00 9.0955853447e+00 4.9935713700e-03 0.0000e+00 0.0000e+00
       11 -1    0    0    0    0 +3.4641165598e-20 +6.1676497030e-20 -2.7755485471e-17 5.1100000000e-04 5.1099893000e-04 0.0000e+00 1.0000e+00
       50  1    1    2    0    0 -2.3764982494e-02 -2.2103588984e-02 +8.9318218528e+00 8.9318822143e+00 4.9935713700e-03 0.0000e+00 0.0000e+00
       11  1    1    2    0    0 +1.2412970379e-02 +1.8920190378e-03 +1.6373258054e-01 1.6421413039e-01 5.1099893000e-04 0.0000e+00 1.0000e+00
<vert_displacement>
466.27446453274320
</vert_displacement>
</event>
<event>
 4   1200 +8.6263000e+09 3.57265500e-02 7.81665300e-03            nan
       50 -1    0    0    0    0 -2.9002476695e-02 -5.0233606729e-02 +2.0121025873e+01 2.0121110101e+01 4.9935713700e-03 0.0000e+00 0.0000e+00
       11 -1    0    0    0    0 -2.6004395195e-19 -4.5040793419e-19 +1.8041049185e-16 5.1100000000e-04 5.1099893000e-04 0.0000e+00 1.0000e+00
       50  1    1    2    0    0 -2.0105755038e-02 -1.2288798765e-02 +1.8811204253e+01 1.8811219674e+01 4.9935713700e-03 0.0000e+00 0.0000e+00
       11  1    1    2    0    0 -8.8967216568e-03 -3.7944807964e-02 +1.3098216207e+00 1.3104014268e+00 5.1099893000e-04 0.0000e+00 1.0000e+00
<vert_displacement>
1.2311031974349937
</vert_displacement>
</event>
<event>
 4   1200 +8.6263000e+09 5.30352800e-03 7.81665300e-03            nan
       50 -1    0    0    0    0 +4.1238411317e-03 +3.8083556222e-03 +2.4701746420e+00 2.4701860674e+00 4.9935713700e-03 0.0000e+00 0.0000e+00
       11 -1    0    0    0    0 +3.4752387608e-20 +3.2093731670e-20 +2.0816627963e-17 5.1100000000e-04 5.1099893000e-04 0.0000e+00 1.0000e+00
       50  1    1    2    0    0 +2.4567548977e-03 +3.1479115227e-03 +2.4670508404e+00 2.4670591258e+00 4.9935713700e-03 0.0000e+00 0.0000e+00
       11  1    1    2    0    0 +1.6670862341e-03 +6.6044409953e-04 +3.1238015948e-03 3.6379416200e-03 5.1099893000e-04 0.0000e+00 1.0000e+00
<vert_displacement>
484.10287325088342
</vert_displacement>
</event>
<event>
 4   1200 +8.6263000e+09 9.64503000e-03 7.81665300e-03            nan
       50 -1    0    0    0    0 -7.3784881670e-03 -4.4174709409e-03 +5.4031774911e+00 5.4031866424e+00 4.9935713700e-03 0.0000e+00 0.0000e+00
       11 -1    0    0    0    0 -2.9374436352e-19 -1.7586355911e-19 +2.1510543856e-16 5.1100000000e-04 5.1099893000e-04 0.0000e+00 1.0000e+00
       50  1    1    2    0    0 -1.5510348868e-02 -3.6867023436e-03 +5.3356890108e+00 5.3357151647e+00 4.9935713700e-03 0.0000e+00 0.0000e+00
       11  1    1    2    0    0 +8.1318607006e-03 -7.3076859736e-04 +6.7488480332e-02 6.7982477733e-02 5.1099893000e-04 0.0000e+00 1.0000e+00
<vert_displacement>
137.82664709424876
</vert_displacement>
</event>
<event>
 4   1200 +8.6263000e+09 3.56241600e-02 7.81665300e-03            nan
       50 -1    0    0    0    0 +3.7942716109e-02 -8.9238132473e-03 +1.1275771924e+01 1.1275840399e+01 4.9935713700e-03 0.0000e+00 0.0000e+00
       11 -1    0    0    0    0 -4.9033069449e-19 +1.1532172695e-19 -1.4571590138e-16 5.1100000000e-04 5.1099893000e-04 0.0000e+00 1.0000e+00
       50  1    1    2    0    0 -1.2953031960e-03 -1.4854709758e-02 +9.8870408606e+00 9.8870533657e+00 4.9935713700e-03 0.0000e+00 0.0000e+00
       11  1    1    2    0    0 +3.9238019305e-02 +5.9308965102e-03 +1.3887310635e+00 1.3892980333e+00 5.1099893000e-04 0.0000e+00 1.0000e+00
<vert_displacement>
4.9048284679806144
</vert_displacement>
</event>
<event>
 4   1200 +8.6263000e+09 1.68468800e-02 7.81665300e-03            nan
       50 -1    0    0    0    0 -2.8952451591e-03 +8.5847279713e-04 +3.5092286679e+00 3.5092335201e+00 4.9935713700e-03 0.0000e+00 0.0000e+00
       11 -1    0    0    0    0 +1.7747020695e-19 -5.2621915105e-20 -2.1510563137e-16 5.1100000000e-04 5.1099893000e-04 0.0000e+00 1.0000e+00
       50  1    1    2    0    0 +1.3421445646e-02 +7.5925050104e-04 +3.2341891669e+00 3.2342209595e+00 4.9935713700e-03 0.0000e+00 0.0000e+00
       11  1    1    2    0    0 -1.6316690805e-02 +9.9222296089e-05 +2.7503950097e-01 2.7552356062e-01 5.1099893000e-04 0.0000e+00 1.0000e+00
<vert_displacement>
170.29564427624038
</vert_displacement>
</event>
<event>
 4   1200 +8.6263000e+09 8.47039700e-03 7.81665300e-03            nan
       50 -1    0    0    0    0 -8.3590600923e-02 -1.4251484459e-02 +3.5610250716e+01 3.5610352027e+01 4.9935713700e-03 0.0000e+00 0.0000e+00
       11 -1    0    0    0    0 +7.7531535386e-18 +1.3218465467e-18 -3.3029041340e-15 5.1100000000e-04 5.1099893000e-04 0.0000e+00 1.0000e+00
       50  1    1    2    0    0 -8.7763734415e-02 -8.8958434195e-03 +3.5564378985e+01 3.5564488738e+01 4.9935713700e-03 0.0000e+00 0.0000e+00
       11  1    1    2    0    0 +4.1731334914e-03 -5.3556410394e-03 +4.5871730909e-02 4.6374289758e-02 5.1099893000e-04 0.0000e+00 1.0000e+00
<vert_displacement>
33.769315854994090
</vert_displacement>
</event>
<event>
 4   1200 +8.6263000e+09 4.13693400e-02 7.81665300e-03            nan
       50 -1    0    0    0    0 -1.7928828477e-02 +8.5940518320e-03 +6.7596459625e+00 6.7596770467e+00 4.9935713700e-03 0.0000e+00 0.0000e+00
       11 -1    0    0    0    0 +1.4723339202e-19 -7.0575241659e-20 -5.5510911112e-17 5.1100000000e-04 5.1099893000e-04 0.0000e+00 1.0000e+00
       50  1    1    2    0    0 -4.1167429952e-02 +2.7555301757e-02 +2.9160248808e+00 2.9164499127e+00 4.9935713700e-03 0.0000e+00 0.0000e+00
       11  1    1    2    0    0 +2.3238601475e-02 -1.8961249925e-02 +3.8436210817e+00 3.8437381340e+00 5.1099893000e-04 0.0000e+00 1.0000e+00
<vert_displacement>
63.559613384162617
</vert_displacement>
</event>
<event>
 4   1200 +8.6263000e+09 9.28958400e-03 7.81665300e-03            nan
       50 -1    0    0    0    0 -8.6719244221e-03 -4.6384844057e-03 +6.0600399043e+00 6.0600499417e+00 4.9935713700e-03 0.0000e+00 0.0000e+00
       11 -1    0    0    0    0 -3.3760478437e-19 -1.8057981728e-19 +2.3592208207e-16 5.1100000000e-04 5.1099893000e-04 0.0000e+00 1.0000e+00
       50  1    1    2    0    0 -6.3490970450e-03 -1.2099439952e-02 +5.9993831092e+00 5.9994007480e+00 4.9935713700e-03 0.0000e+00 0.0000e+00
       11  1    1    2    0    0 -2.3228273771e-03 +7.4609555467e-03 +6.0656795071e-02 6.1160193695e-02 5.1099893000e-04 0.0000e+00 1.0000e+00
<vert_displacement>
272.99511618256577
</vert_displacement>
</event>
<event>
 4   1200 +8.6263000e+09 1.56850700e-02 7.81665300e-03            nan
       50 -1    0    0    0    0 +2.8679868186e-04 -2.7458182899e-02 +1.8531256500e+01 1.8531277518e+01 4.9935713700e-03 0.0000e+00 0.0000e+00
       11 -1    0    0    0    0 +2.6203052094e-20 -2.5086872514e-18 +1.6930882538e-15 5.1100000000e-04 5.1099893000e-04 0.0000e+00 1.0000e+00
       50  1    1    2    0    0 -1.4368960788e-02 -2.4605222419e-02 +1.8312338573e+01 1.8312361421e+01 4.9935713700e-03 0.0000e+00 0.0000e+00
       11  1    1    2    0    0 +1.4655759469e-02 -2.8529604798e-03 +2.1891792779e-01 2.1942709700e-01 5.1099893000e-04 0.0000e+00 1.0000e+00
<vert_displacement>
148.14233652717670
</vert_displacement>
</event>
<event>
 4   1200 +8.6263000e+09 1.28724900e-02 7.81665300e-03            nan
       50 -1    0    0    0    0 +3.9911404175e-02 +2.1031185621e-02 +1.2891812293e+01 1.2891892195e+01 4.9935713700e-03 0.0000e+00 0.0000e+00
       11 -1    0    0    0    0 -2.1481797684e-18 -1.1319763960e-18 -6.9388514183e-16 5.1100000000e-04 5.1099893000e-04 0.0000e+00 1.0000e+00
       50  1    1    2    0    0 +4.6105380651e-02 +1.0961575766e-02 +1.2752561230e+01 1.2752650263e+01 4.9935713700e-03 0.0000e+00 0.0000e+00
       11  1    1    2    0    0 -6.1939764760e-03 +1.0069609855e-02 +1.3925106316e-01 1.3975293234e-01 5.1099893000e-04 0.0000e+00 1.0000e+00
<vert_displacement>
392.94003631760114
</vert_displacement>
</event>
<event>
 4   1200 +8.6263000e+09 1.69084300e-02 7.81665300e-03            nan
       50 -1    0    0    0    0 +4.8796480438e-02 +4.4673507608e-02 +2.9888246169e+01 2.9888319806e+01 4.9935713700e-03 0.0000e+00 0.0000e+00
       11 -1    0    0    0    0 -5.8908856682e-19 -5.3931456399e-19 -3.6082159907e-16 5.1100000000e-04 5.1099893000e-04 0.0000e+00 1.0000e+00
       50  1    1    2    0    0 +4.6522406761e-02 +6.0336056285e-02 +2.9630658212e+01 2.9630756585e+01 4.9935713700e-03 0.0000e+00 0.0000e+00
       11  1    1    2    0    0 +2.2740736769e-03 -1.5662548677e-02 +2.5758795665e-01 2.5807422067e-01 5.1099893000e-04 0.0000e+00 1.0000e+00
<vert_displacement>
8.8659266847262982E-002
</vert_displacement>
</event>
<event>
 4   1200 +8.6263000e+09 6.46546200e-02 7.81665300e-03            nan
       50 -1    0    0    0    0 +2.0124661507e-02 +7.6214919155e-02 +4.5105011546e+01 4.5105080703e+01 4.9935713700e-03 0.0000e+00 0.0000e+00
       11 -1    0    0    0    0 -1.0959648661e-18 -4.1505728501e-18 -2.4563646908e-15 5.1100000000e-04 5.1099893000e-04 0.0000e+00 1.0000e+00
       50  1    1    2    0    0 -1.1666227220e-02 +1.1406454937e-02 +4.0586284742e+01 4.0586288329e+01 4.9935713700e-03 0.0000e+00 0.0000e+00
       11  1    1    2    0    0 +3.1790888727e-02 +6.4808464218e-02 +4.5187268041e+00 4.5193033743e+00 5.1099893000e-04 0.0000e+00 1.0000e+00
<vert_displacement>
44.214971829520088
</vert_displacement>
</event>
<event>
 4   1200 +8.6263000e+09 6.46469600e-03 7.81665300e-03            nan
       50 -1    0    0    0    0 -9.3788839122e-03 -1.9260271127e-03 +6.6992472446e+00 6.6992559478e+00 4.9935713700e-03 0.0000e+00 0.0000e+00
       11 -1    0    0    0    0 +6.7029201905e-19 +1.3764970482e-19 -4.7878319038e-16 5.1100000000e-04 5.1099893000e-04 0.0000e+00 1.0000e+00
       50  1    1    2    0    0 -8.8879456332e-03 -6.0002080316e-03 +6.6827108435e+00 6.6827213133e+00 4.9935713700e-03 0.0000e+00 0.0000e+00
       11  1    1    2    0    0 -4.9093827899e-04 +4.0741809189e-03 +1.6536401164e-02 1.7045634453e-02 5.1099893000e-04 0.0000e+00 1.0000e+00
<vert_displacement>
54.578296702375518
</vert_displacement>
</event>
<event>
 4   1200 +8.6263000e+09 1.01069000e-02 7.81665300e-03            nan
       50 -1    0    0    0    0 -2.5817002414e-03 -1.0532498646e-02 +9.7917795385e+00 9.7917868168e+00 4.9935713700e-03 0.0000e+00 0.0000e+00
       11 -1    0    0    0    0 -4.0432113441e-19 -1.6494989357e-18 +1.5334946123e-15 5.1100000000e-04 5.1099893000e-04 0.0000e+00 1.0000e+00
       50  1    1    2    0    0 -1.1189684521e-02 -8.7861923856e-03 +9.7156299569e+00 9.7156416567e+00 4.9935713700e-03 0.0000e+00 0.0000e+00
       11  1    1    2    0    0 +8.6079842796e-03 -1.7463062602e-03 +7.6149581629e-02 7.6656160099e-02 5.1099893000e-04 0.0000e+00 1.0000e+00
<vert_displacement>
35.988926606555410
</vert_displacement>
</event>
<event>
 4   1200 +8.6263000e+09 3.04192900e-02 7.81665300e-03            nan
       50 -1    0    0    0    0 -7.6290785713e-02 -5.5451568370e-02 +2.3192589705e+01 2.3192782009e+01 4.9935713700e-03 0.0000e+00 0.0000e+00
       11 -1    0    0    0    0 -1.4607956699e-18 -1.0617718799e-18 +4.4408553796e-16 5.1100000000e-04 5.1099893000e-04 0.0000e+00 1.0000e+00
       50  1    1    2    0    0 -7.8180303554e-02 -2.3655650167e-02 +2.2275295191e+01 2.2275445507e+01 4.9935713700e-03 0.0000e+00 0.0000e+00
       11  1    1    2    0    0 +1.8895178409e-03 -3.1795918203e-02 +9.1729451432e-01 9.1784750249e-01 5.1099893000e-04 0.0000e+00 1.0000e+00
<vert_displacement>
202.01799416441628
</vert_displacement>
</event>
<event>
 4   1200 +8.6263000e+09 6.28638800e-03 7.81665300e-03            nan
       50 -1    0    0    0    0 +8.0553998293e-03 -2.7288329708e-02 +1.2347374932e+01 1.2347408724e+01 4.9935713700e-03 0.0000e+00 0.0000e+00
       11 -1    0    0    0    0 +2.0371080901e-19 -6.9008712655e-19 +3.1224939666e-16 5.1100000000e-04 5.1099893000e-04 0.0000e+00 1.0000e+00
       50  1    1    2    0    0 +6.6445058355e-03 -3.0809003745e-02 +1.2333081883e+01 1.2333123165e+01 4.9935713700e-03 0.0000e+00 0.0000e+00
       11  1    1    2    0    0 +1.4108939939e-03 +3.5206740375e-03 +1.4293049048e-02 1.4796558334e-02 5.1099893000e-04 0.0000e+00 1.0000e+00
<vert_displacement>
47.571312276379352
</vert_displacement>
</event>
<event>
 4   1200 +8.6263000e+09 1.30846900e-02 7.81665300e-03            nan
       50 -1    0    0    0    0 +1.0755471418e-02 +2.5977379211e-03 +1.0963191394e+01 1.0963198115e+01 4.9935713700e-03 0.0000e+00 0.0000e+00
       11 -1    0    0    0    0 +7.3520124857e-19 +1.7757103234e-19 +7.4940015995e-16 5.1100000000e-04 5.1099893000e-04 0.0000e+00 1.0000e+00
       50  1    1    2    0    0 -3.4312893923e-04 -2.5584262241e-03 +1.0818148742e+01 1.0818150202e+01 4.9935713700e-03 0.0000e+00 0.0000e+00
       11  1    1    2    0    0 +1.1098600358e-02 +5.1561641452e-03 +1.4504265221e-01 1.4555891261e-01 5.1099893000e-04 0.0000e+00 1.0000e+00
<vert_displacement>
197.19597309733325
</vert_displacement>
</event>
<event>
 4   1200 +8.6263000e+09 5.25531800e-03 7.81665300e-03            nan
       50 -1    0    0    0    0 +6.9061815850e-02 -4.3182348756e-02 +2.8230107823e+01 2.8230225767e+01 4.9935713700e-03 0.0000e+00 0.0000e+00
       11 -1    0    0    0    0 +3.7345353656e-19 -2.3350965597e-19 +1.5265503049e-16 5.1100000000e-04 5.1099893000e-04 0.0000e+00 1.0000e+00
       50  1    1    2    0    0 +6.9618326459e-02 -4.4716417423e-02 +2.8227478950e+01 2.8227600661e+01 4.9935713700e-03 0.0000e+00 0.0000e+00
       11  1    1    2    0    0 -5.5651060854e-04 +1.5340686671e-03 +2.6288730573e-03 3.1361065337e-03 5.1099893000e-04 0.0000e+00 1.0000e+00
<vert_displacement>
183.24722626828830
</vert_displacement>
</event>
<event>
 4   1200 +8.6263000e+09 1.35049600e-02 7.81665300e-03            nan
       50 -1    0    0    0    0 -3.1431915654e-02 -5.3314589512e-03 +1.0556171510e+01 1.0556220833e+01 4.9935713700e-03 0.0000e+00 0.0000e+00
       11 -1    0    0    0    0 -2.4793276583e-18 -4.2054177614e-19 +8.3266347107e-16 5.1100000000e-04 5.1099893000e-04 0.0000e+00 1.0000e+00
       50  1    1    2    0    0 -4.3513393770e-02 -5.1256779239e-03 +1.0399746490e+01 1.0399839983e+01 4.9935713700e-03 0.0000e+00 0.0000e+00
       11  1    1    2    0    0 +1.2081478115e-02 -2.0578102732e-04 +1.5642502074e-01 1.5689185031e-01 5.1099893000e-04 0.0000e+00 1.0000e+00
<vert_displacement>
141.28968480083512
</vert_displacement>
</event>
<event>
 4   1200 +8.6263000e+09 6.78085600e-03 7.81665300e-03            nan
       50 -1    0    0    0    0 +7.2060292733e-02 +3.7196509064e-02 +2.3274010194e+01 2.3274152009e+01 4.9935713700e-03 0.0000e+00 0.0000e+00
       11 -1    0    0    0    0 -2.1913542200e-18 -1.1311462113e-18 -7.0776288191e-16 5.1100000000e-04 5.1099893000e-04 0.0000e+00 1.0000e+00
       50  1    1    2    0    0 +7.6099426633e-02 +3.9215357989e-02 +2.3253384374e+01 2.3253542499e+01 4.9935713700e-03 0.0000e+00 0.0000e+00
       11  1    1    2    0    0 -4.0391339000e-03 -2.0188489248e-03 +2.0625820412e-02 2.1120509966e-02 5.1099893000e-04 0.0000e+00 1.0000e+00
<vert_displacement>
19.617060069564445
</vert_displacement>
</event>
<event>
 4   1200 +8.6263000e+09 1.02274400e-02 7.81665300e-03            nan
       50 -1    0    0    0    0 +8.9926470687e-04 +7.9032548933e-03 +6.9401408416e+00 6.9401471964e+00 4.9935713700e-03 0.0000e+00 0.0000e+00
       11 -1    0    0    0    0 +1.6183845812e-20 +1.4223293501e-19 +1.2490000824e-16 5.1100000000e-04 5.1099893000e-04 0.0000e+00 1.0000e+00
       50  1    1    2    0    0 +8.5689811387e-03 +1.2361351091e-02 +6.8612800229e+00 6.8612983260e+00 4.9935713700e-03 0.0000e+00 0.0000e+00
       11  1    1    2    0    0 -7.6697164318e-03 -4.4580961975e-03 +7.8860818704e-02 7.9359870328e-02 5.1099893000e-04 0.0000e+00 1.0000e+00
<vert_displacement>
132.82517872048240
</vert_displacement>
</event>
<event>
 4   1200 +8.6263000e+09 2.55088300e-02 7.81665300e-03            nan
       50 -1    0    0    0    0 -3.3283548879e-02 +3.4447549250e-02 +2.2062360462e+01 2.2062413026e+01 4.9935713700e-03 0.0000e+00 0.0000e+00
       11 -1    0    0    0    0 +3.0357420930e-18 -3.1419088043e-18 -2.0122744894e-15 5.1100000000e-04 5.1099893000e-04 0.0000e+00 1.0000e+00
       50  1    1    2    0    0 -5.5530053799e-02 +4.2825055006e-02 +2.1431974859e+01 2.1432090165e+01 4.9935713700e-03 0.0000e+00 0.0000e+00
       11  1    1    2    0    0 +2.2246504920e-02 -8.3775057560e-03 +6.3038560323e-01 6.3083386042e-01 5.1099893000e-04 0.0000e+00 1.0000e+00
<vert_displacement>
345.94891545298293
</vert_displacement>
</event>
<event>
 4   1200 +8.6263000e+09 1.84376200e-02 7.81665300e-03            nan
       50 -1    0    0    0    0 +7.7698397088e-03 +1.3012154486e-02 +6.1117725865e+00 6.1117934170e+00 4.9935713700e-03 0.0000e+00 0.0000e+00
       11 -1    0    0    0    0 +1.0585589081e-19 +1.7727691383e-19 +8.3266470846e-17 5.1100000000e-04 5.1099893000e-04 0.0000e+00 1.0000e+00
       50  1    1    2    0    0 +2.3538625682e-02 +5.0299755859e-03 +5.7860906090e+00 5.7861428291e+00 4.9935713700e-03 0.0000e+00 0.0000e+00
       11  1    1    2    0    0 -1.5768785973e-02 +7.9821789000e-03 +3.2568197755e-01 3.2616158788e-01 5.1099893000e-04 0.0000e+00 1.0000e+00
<vert_displacement>
375.42103913812724
</vert_displacement>
</event>
<event>
 4   1200 +8.6263000e+09 1.13980100e-02 7.81665300e-03            nan
       50 -1    0    0    0    0 -1.2948562257e-04 -3.7216314809e-03 +2.2929443903e+00 2.2929528517e+00 4.9935713700e-03 0.0000e+00 0.0000e+00
       11 -1    0    0    0    0 -8.2288092707e-21 -2.3650962187e-19 +1.4571657981e-16 5.1100000000e-04 5.1099893000e-04 0.0000e+00 1.0000e+00
       50  1    1    2    0    0 +2.5786364259e-03 -1.3429752680e-02 +2.1850582850e+00 2.1851067828e+00 4.9935713700e-03 0.0000e+00 0.0000e+00
       11  1    1    2    0    0 -2.7081220485e-03 +9.7081211986e-03 +1.0788610526e-01 1.0835706886e-01 5.1099893000e-04 0.0000e+00 1.0000e+00
<vert_displacement>
362.26034255090451
</vert_displacement>
</event>
<event>
 4   1200 +8.6263000e+09 1.31435500e-02 7.81665300e-03            nan
       50 -1    0    0    0    0 +1.5378369970e-02 -6.5126370659e-03 +8.2023963026e+00 8.2024148243e+00 4.9935713700e-03 0.0000e+00 0.0000e+00
       11 -1    0    0    0    0 -5.8542520544e-19 +2.4792366809e-19 -3.1224957846e-16 5.1100000000e-04 5.1099893000e-04 0.0000e+00 1.0000e+00
       50  1    1    2    0    0 +1.9284688100e-02 +5.0202730304e-03 +8.0551006283e+00 8.0551268252e+00 4.9935713700e-03 0.0000e+00 0.0000e+00
       11  1    1    2    0    0 -3.9063181302e-03 -1.1532910096e-02 +1.4729567428e-01 1.4779899904e-01 5.1099893000e-04 0.0000e+00 1.0000e+00
<vert_displacement>
309.09977847301161
</vert_displacement>
</event>
<event>
 4   1200 +8.6263000e+09 7.61096000e-03 7.81665300e-03            nan
       50 -1    0    0    0    0 +9.4853364264e-03 -9.8957876642e-03 +5.6060500919e+00 5.6060690744e+00 4.9935713700e-03 0.0000e+00 0.0000e+00
       11 -1    0    0    0    0 -4.8135841747e-19 +5.0218784822e-19 -2.8449379961e-16 5.1100000000e-04 5.1099893000e-04 0.0000e+00 1.0000e+00
       50  1    1    2    0    0 +1.4031646551e-02 -6.4005292031e-03 +5.5735758399e+00 5.5735994145e+00 4.9935713700e-03 0.0000e+00 0.0000e+00
       11  1    1    2    0    0 -4.5463101249e-03 -3.4952584611e-03 +3.2474252002e-02 3.2980659946e-02 5.1099893000e-04 0.0000e+00 1.0000e+00
<vert_displacement>
388.77871623086912
</vert_displacement>
</event>
<event>
 4   1200 +8.6263000e+09 9.52979500e-03 7.81665300e-03            nan
       50 -1    0    0    0    0 +4.9488522489e-03 -2.4651503065e-03 +6.6311425980e+00 6.6311467831e+00 4.9935713700e-03 0.0000e+00 0.0000e+00
       11 -1    0    0    0    0 +2.0714106661e-20 -1.0318228110e-20 +2.7755565968e-17 5.1100000000e-04 5.1099893000e-04 0.0000e+00 1.0000e+00
       50  1    1    2    0    0 +1.2776663304e-02 -4.4014216030e-03 +6.5660263631e+00 6.5660421680e+00 4.9935713700e-03 0.0000e+00 0.0000e+00
       11  1    1    2    0    0 -7.8278110550e-03 +1.9362712965e-03 +6.5116234936e-02 6.5615615097e-02 5.1099893000e-04 0.0000e+00 1.0000e+00
<vert_displacement>
8.4061540079485901
</vert_displacement>
</event>
<event>
 4   1200 +8.6263000e+09 1.91912300e-02 7.81665300e-03            nan
       50 -1    0    0    0    0 +7.7443276538e-03 -3.0830886599e-03 +6.8895773487e+00 6.8895842008e+00 4.9935713700e-03 0.0000e+00 0.0000e+00
       11 -1    0    0    0    0 -3.1979003381e-19 +1.2731137820e-19 -2.8449444184e-16 5.1100000000e-04 5.1099893000e-04 0.0000e+00 1.0000e+00
       50  1    1    2    0    0 -4.8167502059e-03 -1.6904272669e-02 +6.5353018473e+00 6.5353273925e+00 4.9935713700e-03 0.0000e+00 0.0000e+00
       11  1    1    2    0    0 +1.2561077860e-02 +1.3821184009e-02 +3.5427550139e-01 3.5476780830e-01 5.1099893000e-04 0.0000e+00 1.0000e+00
<vert_displacement>
492.20922850704778
</vert_displacement>
</event>
<event>
 4   1200 +8.6263000e+09 6.91976100e-03 7.81665300e-03            nan
       50 -1    0    0    0    0 +8.0102507951e-03 -1.4384233478e-02 +8.7442586336e+00 8.7442755593e+00 4.9935713700e-03 0.0000e+00 0.0000e+00
       11 -1    0    0    0    0 -1.5891050407e-19 +2.8536007811e-19 -1.7347204010e-16 5.1100000000e-04 5.1099893000e-04 0.0000e+00 1.0000e+00
       50  1    1    2    0    0 +3.7751376876e-03 -1.6624348392e-02 +8.7217459957e+00 8.7217640859e+00 4.9935713700e-03 0.0000e+00 0.0000e+00
       11  1    1    2    0    0 +4.2351131075e-03 +2.2401149142e-03 +2.2512637930e-02 2.3022473463e-02 5.1099893000e-04 0.0000e+00 1.0000e+00
<vert_displacement>
313.72051416028825
</vert_displacement>
</event>
<event>
 4   1200 +8.6263000e+09 3.36558400e-02 7.81665300e-03            nan
       50 -1    0    0    0    0 -4.9028472739e-02 -4.2149074474e-02 +1.9615700421e+01 1.9615807612e+01 4.9935713700e-03 0.0000e+00 0.0000e+00
       11 -1    0    0    0    0 -3.8155321177e-18 -3.2801582102e-18 +1.5265483664e-15 5.1100000000e-04 5.1099893000e-04 0.0000e+00 1.0000e+00
       50  1    1    2    0    0 -6.3831220553e-02 -1.1476014291e-02 +1.8464063624e+01 1.8464178199e+01 4.9935713700e-03 0.0000e+00 0.0000e+00
       11  1    1    2    0    0 +1.4802747815e-02 -3.0673060184e-02 +1.1516367970e+00 1.1521404130e+00 5.1099893000e-04 0.0000e+00 1.0000e+00
<vert_displacement>
443.00427279644572
</vert_displacement>
</event>
<event>
 4   1200 +8.6263000e+09 9.58088300e-03 7.81665300e-03            nan
       50 -1    0    0    0    0 +1.5851541141e-02 +4.3582156082e-02 +1.9305491088e+01 1.9305547435e+01 4.9935713700e-03 0.0000e+00 0.0000e+00
       11 -1    0    0    0    0 +1.3787800750e-18 +3.7908117511e-18 +1.6792074798e-15 5.1100000000e-04 5.1099893000e-04 0.0000e+00 1.0000e+00
       50  1    1    2    0    0 +2.3819827223e-02 +4.5015738136e-02 +1.9239837547e+01 1.9239905602e+01 4.9935713700e-03 0.0000e+00 0.0000e+00
       11  1    1    2    0    0 -7.9682860815e-03 -1.4335820539e-03 +6.5653541706e-02 6.6152833643e-02 5.1099893000e-04 0.0000e+00 1.0000e+00
<vert_displacement>
481.81058899361159
</vert_displacement>
</event>
<event>
 4   1200 +8.6263000e+09 2.13922100e-02 7.81665300e-03            nan
       50 -1    0    0    0    0 +2.0723687884e-02 -2.5423401905e-03 +1.2265914866e+01 1.2265933652e+01 4.9935713700e-03 0.0000e+00 0.0000e+00
       11 -1    0    0    0    0 -7.7374997910e-19 +9.4922085311e-20 -4.5796633418e-16 5.1100000000e-04 5.1099893000e-04 0.0000e+00 1.0000e+00
       50  1    1    2    0    0 -4.1065329507e-04 -6.5550031803e-03 +1.1826801503e+01 1.1826804381e+01 4.9935713700e-03 0.0000e+00 0.0000e+00
       11  1    1    2    0    0 +2.1134341179e-02 +4.0126629898e-03 +4.3911336292e-01 4.3964027165e-01 5.1099893000e-04 0.0000e+00 1.0000e+00
<vert_displacement>
227.63447659289392
</vert_displacement>
</event>
<event>
 4   1200 +8.6263000e+09 7.74891700e-03 7.81665300e-03            nan
       50 -1    0    0    0    0 -1.3429914633e-02 -5.2937006993e-03 +6.3748777129e+00 6.3748960130e+00 4.9935713700e-03 0.0000e+00 0.0000e+00
       11 -1    0    0    0    0 +6.4319580616e-19 +2.5352998748e-19 -3.0531054900e-16 5.1100000000e-04 5.1099893000e-04 0.0000e+00 1.0000e+00
       50  1    1    2    0    0 -1.6160137631e-02 -1.0485461100e-02 +6.3403227222e+00 6.3403539533e+00 4.9935713700e-03 0.0000e+00 0.0000e+00
       11  1    1    2    0    0 +2.7302229979e-03 +5.1917604004e-03 +3.4554990670e-02 3.5053059692e-02 5.1099893000e-04 0.0000e+00 1.0000e+00
<vert_displacement>
3.6414424186391443
</vert_displacement>
</event>
<event>
 4   1200 +8.6263000e+09 1.13414600e-02 7.81665300e-03            nan
       50 -1    0    0    0    0 +3.4699523082e-03 +1.3020442572e-02 +7.3517581452e+00 7.3517721900e+00 4.9935713700e-03 0.0000e+00 0.0000e+00
       11 -1    0    0    0    0 -3.4388332014e-19 -1.2903673087e-18 -7.2858263609e-16 5.1100000000e-04 5.1099893000e-04 0.0000e+00 1.0000e+00
       50  1    1    2    0    0 +5.5083315547e-03 +2.2804980063e-02 +7.2488265053e+00 7.2488661906e+00 4.9935713700e-03 0.0000e+00 0.0000e+00
       11  1    1    2    0    0 -2.0383792465e-03 -9.7845374915e-03 +1.0293163985e-01 1.0341699941e-01 5.1099893000e-04 0.0000e+00 1.0000e+00
<vert_displacement>
52.569492546380268
</vert_displacement>
</event>
<event>
 4   1200 +8.6263000e+09 1.91392800e-02 7.81665300e-03            nan
       50 -1    0    0    0    0 +1.2726369552e-02 +2.0662421449e-02 +1.3445121426e+01 1.3445144253e+01 4.9935713700e-03 0.0000e+00 0.0000e+00
       11 -1    0    0    0    0 +3.4153300936e-19 +5.5450998411e-19 +3.6082189528e-16 5.1100000000e-04 5.1099893000e-04 0.0000e+00 1.0000e+00
       50  1    1    2    0    0 +2.2068019806e-02 +3.5881765561e-02 +1.3102292675e+01 1.3102361344e+01 4.9935713700e-03 0.0000e+00 0.0000e+00
       11  1    1    2    0    0 -9.3416502536e-03 -1.5219344112e-02 +3.4282875053e-01 3.4329390932e-01 5.1099893000e-04 0.0000e+00 1.0000e+00
<vert_displacement>
487.49940526988564
</vert_displacement>
</event>
<event>
 4   1200 +8.6263000e+09 6.26326700e-02 7.81665300e-03            nan
       50 -1    0    0    0    0 +6.6824062362e-02 -3.5440400966e-02 +1.9219567206e+01 1.9219716699e+01 4.9935713700e-03 0.0000e+00 0.0000e+00
       11 -1    0    0    0    0 +6.4656314815e-18 -3.4290727637e-18 +1.8596091646e-15 5.1100000000e-04 5.1099893000e-04 0.0000e+00 1.0000e+00
       50  1    1    2    0    0 +1.0184623506e-01 +6.7921230577e-03 +1.3969517392e+01 1.3969891192e+01 4.9935713700e-03 0.0000e+00 0.0000e+00
       11  1    1    2    0    0 -3.5022172701e-02 -4.2232524024e-02 +5.2500498135e+00 5.2503365077e+00 5.1099893000e-04 0.0000e+00 1.0000e+00
<vert_displacement>
106.21867240360798
</vert_displacement>
</event>
<event>
 4   1200 +8.6263000e+09 5.16634500e-02 7.81665300e-03            nan
       50 -1    0    0    0    0 +1.2929687718e-02 -3.9520536828e-03 +1.0664385963e+01 1.0664395703e+01 4.9935713700e-03 0.0000e+00 0.0000e+00
       11 -1    0    0    0    0 +7.6556747045e-19 -2.3400130050e-19 +6.3143883780e-16 5.1100000000e-04 5.1099893000e-04 0.0000e+00 1.0000e+00
       50  1    1    2    0    0 +1.2717545284e-02 +4.8854398153e-02 +6.2237397400e+00 6.2239464792e+00 4.9935713700e-03 0.0000e+00 0.0000e+00
       11  1    1    2    0    0 +2.1214243358e-04 -5.2806451836e-02 +4.4406462233e+00 4.4409602237e+00 5.1099893000e-04 0.0000e+00 1.0000e+00
<vert_displacement>
482.27992668936974
</vert_displacement>
</event>
<event>
 4   1200 +8.6263000e+09 1.84545400e-02 7.81665300e-03            nan
       50 -1    0    0    0    0 -1.8789317070e-02 +1.1688744172e-02 +1.0187602695e+01 1.0187627951e+01 4.9935713700e-03 0.0000e+00 0.0000e+00
       11 -1    0    0    0    0 +1.0366048516e-18 -6.4486691413e-19 -5.6204908035e-16 5.1100000000e-04 5.1099893000e-04 0.0000e+00 1.0000e+00
       50  1    1    2    0    0 -2.9210653421e-02 +2.5266559138e-02 +9.8687084861e+00 9.8687853244e+00 4.9935713700e-03 0.0000e+00 0.0000e+00
       11  1    1    2    0    0 +1.0421336351e-02 -1.3577814966e-02 +3.1889420883e-01 3.1935362666e-01 5.1099893000e-04 0.0000e+00 1.0000e+00
<vert_displacement>
360.78654401734360
</vert_displacement>
</event>
<event>
 4   1200 +8.6263000e+09 5.25930800e-03 7.81665300e-03            nan
       50 -1    0    0    0    0 -1.7248765837e-02 +4.8825492753e-02 +2.8055452340e+01 2.8055500573e+01 4.9935713700e-03 0.0000e+00 0.0000e+00
       11 -1    0    0    0    0 +1.3566173859e-18 -3.8401305328e-18 -2.2065645029e-15 5.1100000000e-04 5.1099893000e-04 0.0000e+00 1.0000e+00
       50  1    1    2    0    0 -1.7634362636e-02 +4.7216295470e-02 +2.8052788686e+01 2.8052834408e+01 4.9935713700e-03 0.0000e+00 0.0000e+00
       11  1    1    2    0    0 +3.8559679824e-04 +1.6091972827e-03 +2.6636542877e-03 3.1771645938e-03 5.1099893000e-04 0.0000e+00 1.0000e+00
<vert_displacement>
365.81057035561741
</vert_displacement>
</event>
<event>
 4   1200 +8.6263000e+09 1.30676200e-02 7.81665300e-03            nan
       50 -1    0    0    0    0 -1.2905629463e-03 -3.4221278458e-04 +4.0184706224e+00 4.0184739469e+00 4.9935713700e-03 0.0000e+00 0.0000e+00
       11 -1    0    0    0    0 +6.0168942893e-20 +1.5954728556e-20 -1.8735012506e-16 5.1100000000e-04 5.1099893000e-04 0.0000e+00 1.0000e+00
       50  1    1    2    0    0 -1.0022741000e-02 -8.6206932961e-03 +3.8702623960e+00 3.8702881961e+00 4.9935713700e-03 0.0000e+00 0.0000e+00
       11  1    1    2    0    0 +8.7321780533e-03 +8.2784805116e-03 +1.4820822648e-01 1.4869675076e-01 5.1099893000e-04 0.0000e+00 1.0000e+00
<vert_displacement>
166.98437360745174
</vert_displacement>
</event>
<event>
 4   1200 +8.6263000e+09 2.31760000e-02 7.81665300e-03            nan
       50 -1    0    0    0    0 -2.9907341166e-02 -2.4977368049e-03 +9.6435582490e+00 9.6436062407e+00 4.9935713700e-03 0.0000e+00 0.0000e+00
       11 -1    0    0    0    0 +1.8506619344e-18 +1.5455959129e-19 -5.9674198602e-16 5.1100000000e-04 5.1099893000e-04 0.0000e+00 1.0000e+00
       50  1    1    2    0    0 -6.7775271154e-03 -9.4731317102e-03 +9.1131834703e+00 9.1131922824e+00 4.9935713700e-03 0.0000e+00 0.0000e+00
       11  1    1    2    0    0 -2.3129814050e-02 +6.9753949052e-03 +5.3037477867e-01 5.3092495835e-01 5.1099893000e-04 0.0000e+00 1.0000e+00
<vert_displacement>
395.87948694640949
</vert_displacement>
</event>
<event>
 4   1200 +8.6263000e+09 1.23434800e-02 7.81665300e-03            nan
       50 -1    0    0    0    0 -6.4426275674e-03 +8.8203561306e-04 +3.2284286099e+00 3.2284390207e+00 4.9935713700e-03 0.0000e+00 0.0000e+00
       11 -1    0    0    0    0 +6.5774084975e-19 -9.0048795709e-20 -3.2959679184e-16 5.1100000000e-04 5.1099893000e-04 0.0000e+00 1.0000e+00
       50  1    1    2    0    0 -7.3624182344e-03 -1.0380021928e-02 +3.0984551214e+00 3.0984852792e+00 4.9935713700e-03 0.0000e+00 0.0000e+00
       11  1    1    2    0    0 +9.1979066693e-04 +1.1262057541e-02 +1.2997348850e-01 1.3046474155e-01 5.1099893000e-04 0.0000e+00 1.0000e+00
<vert_displacement>
250.60492925492218
</vert_displacement>
</event>
<event>
 4   1200 +8.6263000e+09 2.35679700e-02 7.81665300e-03            nan
       50 -1    0    0    0    0 +2.2494537304e-02 -1.4012223503e-02 +6.5004474987e+00 6.5005034394e+00 4.9935713700e-03 0.0000e+00 0.0000e+00
       11 -1    0    0    0    0 -1.2005781958e-19 +7.4786023760e-20 -3.4694181190e-17 5.1100000000e-04 5.1099893000e-04 0.0000e+00 1.0000e+00
       50  1    1    2    0    0 +4.9799717216e-03 +4.2103961484e-03 +5.9313911638e+00 5.9313968508e+00 4.9935713700e-03 0.0000e+00 0.0000e+00
       11  1    1    2    0    0 +1.7514565583e-02 -1.8222619652e-02 +5.6905633492e-01 5.6961758866e-01 5.1099893000e-04 0.0000e+00 1.0000e+00
<vert_displacement>
7.6549732702993891
</vert_displacement>
</event>
<event>
 4   1200 +8.6263000e+09 1.99869000e-02 7.81665300e-03            nan
       50 -1    0    0    0    0 -2.3112668339e-03 +4.0678828202e-03 +1.4342190648e+01 1.4342192281e+01 4.9935713700e-03 0.0000e+00 0.0000e+00
       11 -1    0    0    0    0 -9.9521021902e-20 +1.7515928897e-19 +6.1756152459e-16 5.1100000000e-04 5.1099893000e-04 0.0000e+00 1.0000e+00
       50  1    1    2    0    0 -1.9943483394e-02 +1.1803490699e-02 +1.3965800471e+01 1.3965820591e+01 4.9935713700e-03 0.0000e+00 0.0000e+00
       11  1    1    2    0    0 +1.7632216560e-02 -7.7356078788e-03 +3.7639017784e-01 3.7688268969e-01 5.1099893000e-04 0.0000e+00 1.0000e+00
<vert_displacement>
170.39800596901074
</vert_displacement>
</event>
<event>
 4   1200 +8.6263000e+09 7.23680100e-03 7.81665300e-03            nan
       50 -1    0    0    0    0 -6.9804312796e-02 -1.0473921267e-01 +4.0717505113e+01 4.0717699966e+01 4.9935713700e-03 0.0000e+00 0.0000e+00
       11 -1    0    0    0    0 +5.0913509878e-18 +7.6394147084e-18 -2.9698324011e-15 5.1100000000e-04 5.1099893000e-04 0.0000e+00 1.0000e+00
       50  1    1    2    0    0 -6.5580423642e-02 -1.0782941738e-01 +4.0690641268e+01 4.0690837295e+01 4.9935713700e-03 0.0000e+00 0.0000e+00
       11  1    1    2    0    0 -4.2238891548e-03 +3.0902047161e-03 +2.6863845173e-02 2.7373671697e-02 5.1099893000e-04 0.0000e+00 1.0000e+00
<vert_displacement>
436.28206685693931
</vert_displacement>
</event>
<event>
 4   1200 +8.6263000e+09 2.73597100e-02 7.81665300e-03            nan
       50 -1    0    0    0    0 -3.1458611945e-03 -3.0276760257e-03 +6.0718664541e+00 6.0718700773e+00 4.9935713700e-03 0.0000e+00 0.0000e+00
       11 -1    0    0    0    0 +0.0000000000e+00 -0.0000000000e+00 +0.0000000000e+00 5.1100000000e-04 5.1099893000e-04 0.0000e+00 1.0000e+00
       50  1    1    2    0    0 -2.8366201668e-02 +5.5028018897e-03 +5.2528435093e+00 5.2529253555e+00 4.9935713700e-03 0.0000e+00 0.0000e+00
       11  1    1    2    0    0 +2.5220340473e-02 -8.5304779154e-03 +8.1902294481e-01 8.1945572173e-01 5.1099893000e-04 0.0000e+00 1.0000e+00
<vert_displacement>
231.78912731364491
</vert_displacement>
</event>
<event>
 4   1200 +8.6263000e+09 2.27143400e-02 7.81665300e-03            nan
       50 -1    0    0    0    0 +5.4020601553e-03 +1.4142862823e-02 +8.4024275148e+00 8.4024426377e+00 4.9935713700e-03 0.0000e+00 0.0000e+00
       11 -1    0    0    0    0 +4.4611228563e-21 +1.1679442061e-20 +6.9388826405e-18 5.1100000000e-04 5.1099893000e-04 0.0000e+00 1.0000e+00
       50  1    1    2    0    0 +2.0406046165e-02 +2.9278542049e-02 +7.8906724956e+00 7.8907547806e+00 4.9935713700e-03 0.0000e+00 0.0000e+00
       11  1    1    2    0    0 -1.5003986009e-02 -1.5135679226e-02 +5.1175501923e-01 5.1219885710e-01 5.1099893000e-04 0.0000e+00 1.0000e+00
<vert_displacement>
146.67563107324423
</vert_displacement>
</event>
<event>
 4   1200 +8.6263000e+09 2.70820000e-02 7.81665300e-03            nan
       50 -1    0    0    0    0 -2.5558187944e-03 +8.5929869299e-03 +4.6378816908e+00 4.6378930437e+00 4.9935713700e-03 0.0000e+00 0.0000e+00
       11 -1    0    0    0    0 -1.9119205170e-20 +6.4281192584e-20 +3.4694404702e-17 5.1100000000e-04 5.1099893000e-04 0.0000e+00 1.0000e+00
       50  1    1    2    0    0 -2.8335911577e-02 +2.6003926421e-03 +3.7880083884e+00 3.7881185531e+00 4.9935713700e-03 0.0000e+00 0.0000e+00
       11  1    1    2    0    0 +2.5780092782e-02 +5.9925942878e-03 +8.4987330238e-01 8.5028549063e-01 5.1099893000e-04 0.0000e+00 1.0000e+00
<vert_displacement>
114.79551930021998
</vert_displacement>
</event>
<event>
 4   1200 +8.6263000e+09 2.87153700e-02 7.81665300e-03            nan
       50 -1    0    0    0    0 +8.2584210857e-03 +2.0887364438e-03 +3.2711152889e+00 3.2711301920e+00 4.9935713700e-03 0.0000e+00 0.0000e+00
       11 -1    0    0    0    0 -2.2773684468e-19 -5.7599660050e-20 -9.0205314884e-17 5.1100000000e-04 5.1099893000e-04 0.0000e+00 1.0000e+00
       50  1    1    2    0    0 -1.5232137255e-02 +2.1068548307e-02 +1.9557349263e+00 1.9559140931e+00 4.9935713700e-03 0.0000e+00 0.0000e+00
       11  1    1    2    0    0 +2.3490558340e-02 -1.8979811863e-02 +1.3153803625e+00 1.3157270989e+00 5.1099893000e-04 0.0000e+00 1.0000e+00
<vert_displacement>
255.88086584226099
</vert_displacement>
</event>
<event>
 4   1200 +8.6263000e+09 6.98852800e-03 7.81665300e-03            nan
       50 -1    0    0    0    0 -1.0547082212e-03 -4.5928732164e-02 +1.9111421004e+01 1.9111476873e+01 4.9935713700e-03 0.0000e+00 0.0000e+00
       11 -1    0    0    0    0 +2.3742149399e-20 +1.0338848213e-18 -4.3021017907e-16 5.1100000000e-04 5.1099893000e-04 0.0000e+00 1.0000e+00
       50  1    1    2    0    0 -3.4587357772e-03 -5.0128988062e-02 +1.9087992149e+01 1.9088058940e+01 4.9935713700e-03 0.0000e+00 0.0000e+00
       11  1    1    2    0    0 +2.4040275560e-03 +4.2002558979e-03 +2.3428854922e-02 2.3928933552e-02 5.1099893000e-04 0.0000e+00 1.0000e+00
<vert_displacement>
2.7063760402755159
</vert_displacement>
</event>
<event>
 4   1200 +8.6263000e+09 4.33414400e-02 7.81665300e-03            nan
       50 -1    0    0    0    0 -5.4666903628e-03 -1.7242001519e-02 +2.8327359249e+01 2.8327365464e+01 4.9935713700e-03 0.0000e+00 0.0000e+00
       11 -1    0    0    0    0 -2.1425379679e-20 -6.7575883114e-20 +1.1102227983e-16 5.1100000000e-04 5.1099893000e-04 0.0000e+00 1.0000e+00
       50  1    1    2    0    0 -4.6840675501e-02 -5.5448779620e-03 +2.6379647387e+01 2.6379690028e+01 4.9935713700e-03 0.0000e+00 0.0000e+00
       11  1    1    2    0    0 +4.1373985138e-02 -1.1697123558e-02 +1.9477118618e+00 1.9481864354e+00 5.1099893000e-04 0.0000e+00 1.0000e+00
<vert_displacement>
71.472175088517119
</vert_displacement>
</event>
<event>
 4   1200 +8.6263000e+09 4.87597400e-02 7.81665300e-03            nan
       50 -1    0    0    0    0 -3.1038933159e-02 -1.1620122548e-02 +1.8876943788e+01 1.8876973544e+01 4.9935713700e-03 0.0000e+00 0.0000e+00
       11 -1    0    0    0    0 -3.3087402821e-18 -1.2387013227e-18 +2.0122761306e-15 5.1100000000e-04 5.1099893000e-04 0.0000e+00 1.0000e+00
       50  1    1    2    0    0 -1.6896618830e-02 +3.7549782793e-02 +1.6192845133e+01 1.6192898255e+01 4.9935713700e-03 0.0000e+00 0.0000e+00
       11  1    1    2    0    0 -1.4142314329e-02 -4.9169905341e-02 +2.6840986558e+00 2.6845862884e+00 5.1099893000e-04 0.0000e+00 1.0000e+00
<vert_displacement>
290.82629205729711
</vert_displacement>
</event>
<event>
 4   1200 +8.6263000e+09 6.83325900e-02 7.81665300e-03            nan
       50 -1    0    0    0    0 +5.5728936004e-02 +9.5806584454e-03 +1.8347802237e+01 1.8347890052e+01 4.9935713700e-03 0.0000e+00 0.0000e+00
       11 -1    0    0    0    0 +4.5945330433e-18 +7.8987066613e-19 +1.5126716872e-15 5.1100000000e-04 5.1099893000e-04 0.0000e+00 1.0000e+00
       50  1    1    2    0    0 +8.1520372728e-02 -3.9823412356e-02 +1.0002373064e+01 1.0002785778e+01 4.9935713700e-03 0.0000e+00 0.0000e+00
       11  1    1    2    0    0 -2.5791436724e-02 +4.9404070801e-02 +8.3454291730e+00 8.3456152741e+00 5.1099893000e-04 0.0000e+00 1.0000e+00
<vert_displacement>
173.07053742632831
</vert_displacement>
</event>
<event>
 4   1200 +8.6263000e+09 8.03917000e-03 7.81665300e-03            nan
       50 -1    0    0    0    0 +3.4540581426e-02 -4.9185229753e-05 +1.5212911411e+01 1.5212951443e+01 4.9935713700e-03 0.0000e+00 0.0000e+00
       11 -1    0    0    0    0 +1.8590387511e-18 -2.6472411384e-21 +8.1878737021e-16 5.1100000000e-04 5.1099893000e-04 0.0000e+00 1.0000e+00
       50  1    1    2    0    0 +4.0558404666e-02 -1.6002584323e-03 +1.5173958447e+01 1.5174013558e+01 4.9935713700e-03 0.0000e+00 0.0000e+00
       11  1    1    2    0    0 -6.0178232399e-03 +1.5510732026e-03 +3.8952963966e-02 3.9448885234e-02 5.1099893000e-04 0.0000e+00 1.0000e+00
<vert_displacement>
288.60843065508760
</vert_displacement>
</event>
<event>
 4   1200 +8.6263000e+09 1.51306200e-02 7.81665300e-03            nan
       50 -1    0    0    0    0 -3.2050125319e-02 -4.6636890825e-04 +1.2193667301e+01 1.2193710453e+01 4.9935713700e-03 0.0000e+00 0.0000e+00
       11 -1    0    0    0    0 -1.4043483958e-18 -2.0435003659e-20 +5.3429298460e-16 5.1100000000e-04 5.1099893000e-04 0.0000e+00 1.0000e+00
       50  1    1    2    0    0 -2.4003354037e-02 -1.2605682152e-02 +1.1990684010e+01 1.1990715701e+01 4.9935713700e-03 0.0000e+00 0.0000e+00
       11  1    1    2    0    0 -8.0467712819e-03 +1.2139313244e-02 +2.0298329113e-01 2.0350575189e-01 5.1099893000e-04 0.0000e+00 1.0000e+00
<vert_displacement>
204.98282503805174
</vert_displacement>
</event>
<event>
 4   1200 +8.6263000e+09 9.58717700e-03 7.81665300e-03            nan
       50 -1    0    0    0    0 +3.5394850104e-02 +3.8837102944e-02 +1.5207076650e+01 1.5207168253e+01 4.9935713700e-03 0.0000e+00 0.0000e+00
       11 -1    0    0    0    0 -2.0995457826e-19 -2.3037327593e-19 -9.0205082242e-17 5.1100000000e-04 5.1099893000e-04 0.0000e+00 1.0000e+00
       50  1    1    2    0    0 +3.3386582800e-02 +3.0698028756e-02 +1.5141277744e+01 1.5141346495e+01 4.9935713700e-03 0.0000e+00 0.0000e+00
       11  1    1    2    0    0 +2.0082673039e-03 +8.1390741885e-03 +6.5798905527e-02 6.6332757780e-02 5.1099893000e-04 0.0000e+00 1.0000e+00
<vert_displacement>
391.74862123581158
</vert_displacement>
</event>
<event>
 4   1200 +8.6263000e+09 1.46378900e-02 7.81665300e-03            nan
       50 -1    0    0    0    0 -4.8298828318e-02 +1.8436458422e-02 +1.6004098850e+01 1.6004183129e+01 4.9935713700e-03 0.0000e+00 0.0000e+00
       11 -1    0    0    0    0 +1.4658562783e-18 -5.5954148927e-19 -4.8572003908e-16 5.1100000000e-04 5.1099893000e-04 0.0000e+00 1.0000e+00
       50  1    1    2    0    0 -6.0624493587e-02 +1.3409835732e-02 +1.5816605152e+01 1.5816727810e+01 4.9935713700e-03 0.0000e+00 0.0000e+00
       11  1    1    2    0    0 +1.2325665269e-02 +5.0266226898e-03 +1.8749369866e-01 1.8796631910e-01 5.1099893000e-04 0.0000e+00 1.0000e+00
<vert_displacement>
43.351552318584488
</vert_displacement>
</event>
<event>
 4   1200 +8.6263000e+09 5.10117200e-03 7.81665300e-03            nan
       50 -1    0    0    0    0 -3.2438799814e-03 -4.0310842701e-03 +1.0561577730e+01 1.0561580178e+01 4.9935713700e-03 0.0000e+00 0.0000e+00
       11 -1    0    0    0    0 -1.1934774012e-19 -1.4831029528e-19 +3.8857801199e-16 5.1100000000e-04 5.1099893000e-04 0.0000e+00 1.0000e+00
       50  1    1    2    0    0 -2.9522589798e-03 -3.0300025337e-03 +1.0560515221e+01 1.0560517249e+01 4.9935713700e-03 0.0000e+00 0.0000e+00
       11  1    1    2    0    0 -2.9162100156e-04 -1.0010817364e-03 +1.0625092871e-03 1.5739292687e-03 5.1099893000e-04 0.0000e+00 1.0000e+00
<vert_displacement>
322.00149585616754
</vert_displacement>
</event>
<event>
 4   1200 +8.6263000e+09 2.46328500e-02 7.81665300e-03            nan
       50 -1    0    0    0    0 +1.2342863591e-02 -1.7708369518e-02 +9.2008127393e+00 9.2008394145e+00 4.9935713700e-03 0.0000e+00 0.0000e+00
       11 -1    0    0    0    0 -1.8337706429e-18 +2.6309201195e-18 -1.3669583373e-15 5.1100000000e-04 5.1099893000e-04 0.0000e+00 1.0000e+00
       50  1    1    2    0    0 -1.0637191121e-02 -2.6057766535e-02 +8.5909453938e+00 8.5909929492e+00 4.9935713700e-03 0.0000e+00 0.0000e+00
       11  1    1    2    0    0 +2.2980054713e-02 +8.3493970178e-03 +6.0986734546e-01 6.1035746536e-01 5.1099893000e-04 0.0000e+00 1.0000e+00
<vert_displacement>
155.72991609771861
</vert_displacement>
</event>
<event>
 4   1200 +8.6263000e+09 8.69210900e-03 7.81665300e-03            nan
       50 -1    0    0    0    0 +1.3451123745e-02 -4.7600998420e-03 +5.3848474833e+00 5.3848687027e+00 4.9935713700e-03 0.0000e+00 0.0000e+00
       11 -1    0    0    0    0 -6.9332023373e-20 +2.4535299782e-20 -2.7755478177e-17 5.1100000000e-04 5.1099893000e-04 0.0000e+00 1.0000e+00
       50  1    1    2    0    0 +8.1439076131e-03 +1.5854482533e-04 +5.3348664790e+00 5.3348750344e+00 4.9935713700e-03 0.0000e+00 0.0000e+00
       11  1    1    2    0    0 +5.3072161324e-03 -4.9186446674e-03 +4.9981004311e-02 5.0504668302e-02 5.1099893000e-04 0.0000e+00 1.0000e+00
<vert_displacement>
153.79904558922047
</vert_displacement>
</event>
<event>
 4   1200 +8.6263000e+09 9.45282100e-03 7.81665300e-03            nan
       50 -1    0    0    0    0 +2.8109638508e-03 -8.0151151613e-03 +3.8168136643e+00 3.8168263816e+00 4.9935713700e-03 0.0000e+00 0.0000e+00
       11 -1    0    0    0    0 +3.0917106979e-19 -8.8156300131e-19 +4.1980204172e-16 5.1100000000e-04 5.1099893000e-04 0.0000e+00 1.0000e+00
       50  1    1    2    0    0 -5.1868474861e-03 -6.7812691639e-03 +3.7526959697e+00 3.7527090036e+00 4.9935713700e-03 0.0000e+00 0.0000e+00
       11  1    1    2    0    0 +7.9978113369e-03 -1.2338459974e-03 +6.4117694594e-02 6.4628377994e-02 5.1099893000e-04 0.0000e+00 1.0000e+00
<vert_displacement>
355.20960426364303
</vert_displacement>
</event>
<event>
 4   1200 +8.6263000e+09 1.36348100e-02 7.81665300e-03            nan
       50 -1    0    0    0    0 -2.5068030149e-02 -7.1401989428e-04 +1.2282983370e+01 1.2283009986e+01 4.9935713700e-03 0.0000e+00 0.0000e+00
       11 -1    0    0    0    0 +4.6732565823e-19 +1.3310970790e-20 -2.2898302157e-16 5.1100000000e-04 5.1099893000e-04 0.0000e+00 1.0000e+00
       50  1    1    2    0    0 -3.0926909581e-02 +1.0373306967e-02 +1.2123380275e+01 1.2123425189e+01 4.9935713700e-03 0.0000e+00 0.0000e+00
       11  1    1    2    0    0 +5.8588794323e-03 -1.1087326861e-02 +1.5960309472e-01 1.6009579710e-01 5.1099893000e-04 0.0000e+00 1.0000e+00
<vert_displacement>
19.052960574505992
</vert_displacement>
</event>
<event>
 4   1200 +8.6263000e+09 1.98014300e-02 7.81665300e-03            nan
       50 -1    0    0    0    0 +3.3073701806e-02 +2.5376884862e-02 +1.4122368606e+01 1.4122431017e+01 4.9935713700e-03 0.0000e+00 0.0000e+00
       11 -1    0    0    0    0 +1.0887757049e-18 +8.3539894829e-19 +4.6490386607e-16 5.1100000000e-04 5.1099893000e-04 0.0000e+00 1.0000e+00
       50  1    1    2    0    0 +1.3545988214e-02 +2.9052756849e-02 +1.3753481865e+01 1.3753520128e+01 4.9935713700e-03 0.0000e+00 0.0000e+00
       11  1    1    2    0    0 +1.9527713592e-02 -3.6758719870e-03 +3.6888674078e-01 3.6942188928e-01 5.1099893000e-04 0.0000e+00 1.0000e+00
<vert_displacement>
212.30246235017157
</vert_displacement>
</event>
<event>
 4   1200 +8.6263000e+09 7.47660100e-03 7.81665300e-03            nan
       50 -1    0    0    0    0 +2.4690470748e-03 +1.1843127874e-02 +1.0520283121e+01 1.0520291262e+01 4.9935713700e-03 0.0000e+00 0.0000e+00
       11 -1    0    0    0    0 +7.0026167485e-20 +3.3589025683e-19 +2.9837224059e-16 5.1100000000e-04 5.1099893000e-04 0.0000e+00 1.0000e+00
       50  1    1    2    0    0 -2.8508788211e-03 +1.0154225429e-02 +1.0489899538e+01 1.0489906029e+01 4.9935713700e-03 0.0000e+00 0.0000e+00
       11  1    1    2    0    0 +5.3199258960e-03 +1.6889024457e-03 +3.0383582720e-02 3.0896233133e-02 5.1099893000e-04 0.0000e+00 1.0000e+00
<vert_displacement>
65.577416267583445
</vert_displacement>
</event>
<event>
 4   1200 +8.6263000e+09 9.94030000e-03 7.81665300e-03            nan
       50 -1    0    0    0    0 -1.2217515974e-02 +2.2150383568e-02 +1.1265798951e+01 1.1265828458e+01 4.9935713700e-03 0.0000e+00 0.0000e+00
       11 -1    0    0    0    0 -1.9188907604e-18 +3.4789532062e-18 +1.7694134849e-15 5.1100000000e-04 5.1099893000e-04 0.0000e+00 1.0000e+00
       50  1    1    2    0    0 -1.6765632666e-02 +2.9250541888e-02 +1.1193022129e+01 1.1193074019e+01 4.9935713700e-03 0.0000e+00 0.0000e+00
       11  1    1    2    0    0 +4.5481166919e-03 -7.1001583202e-03 +7.2776821889e-02 7.3265438904e-02 5.1099893000e-04 0.0000e+00 1.0000e+00
<vert_displacement>
256.99480589632481
</vert_displacement>
</event>
<event>
 4   1200 +8.6263000e+09 4.09291900e-02 7.81665300e-03            nan
       50 -1    0    0    0    0 +2.0508789707e-02 +1.5872045448e-02 +3.8495745583e+01 3.8495754642e+01 4.9935713700e-03 0.0000e+00 0.0000e+00
       11 -1    0    0    0    0 -1.7522488627e-18 -1.3560904365e-18 -3.2890349641e-15 5.1100000000e-04 5.1099893000e-04 0.0000e+00 1.0000e+00
       50  1    1    2    0    0 +5.9267113989e-02 +6.3724248592e-03 +3.6806826091e+01 3.6806874698e+01 4.9935713700e-03 0.0000e+00 0.0000e+00
       11  1    1    2    0    0 -3.8758324283e-02 +9.4996205887e-03 +1.6889194912e+00 1.6893909434e+00 5.1099893000e-04 0.0000e+00 1.0000e+00
<vert_displacement>
396.22697284323709
</vert_displacement>
</event>
<event>
 4   1200 +8.6263000e+09 1.23466100e-02 7.81665300e-03            nan
       50 -1    0    0    0    0 -8.7574876115e-03 +4.6140716231e-03 +3.3951622808e+00 3.3951803828e+00 4.9935713700e-03 0.0000e+00 0.0000e+00
       11 -1    0    0    0    0 -4.6535109867e-19 +2.4518028394e-19 +1.8041047474e-16 5.1100000000e-04 5.1099893000e-04 0.0000e+00 1.0000e+00
       50  1    1    2    0    0 -9.1862543331e-03 -6.8281588397e-03 +3.2654035177e+00 3.2654273963e+00 4.9935713700e-03 0.0000e+00 0.0000e+00
       11  1    1    2    0    0 +4.2876672160e-04 +1.1442230463e-02 +1.2975876301e-01 1.3026398649e-01 5.1099893000e-04 0.0000e+00 1.0000e+00
<vert_displacement>
451.67974870613045
</vert_displacement>
</event>
<event>
 4   1200 +8.6263000e+09 7.44610100e-03 7.81665300e-03            nan
       50 -1    0    0    0    0 -1.5314669067e-03 -2.8937201235e-02 +1.3457080110e+01 1.3457112236e+01 4.9935713700e-03 0.0000e+00 0.0000e+00
       11 -1    0    0    0    0 +7.5808386310e-20 +1.4324060941e-18 -6.6613227039e-16 5.1100000000e-04 5.1099893000e-04 0.0000e+00 1.0000e+00
       50  1    1    2    0    0 -7.0464456000e-03 -2.9109738459e-02 +1.3427159340e+01 1.3427193672e+01 4.9935713700e-03 0.0000e+00 0.0000e+00
       11  1    1    2    0    0 +5.5149786933e-03 +1.7253722337e-04 +2.9920770105e-02 3.0429563958e-02 5.1099893000e-04 0.0000e+00 1.0000e+00
<vert_displacement>
493.16627875670082
</vert_displacement>
</event>
<event>
 4   1200 +8.6263000e+09 5.28007600e-02 7.81665300e-03            nan
       50 -1    0    0    0    0 +3.1589808636e-02 +2.8130907158e-02 +1.2004272149e+01 1.2004347714e+01 4.9935713700e-03 0.0000e+00 0.0000e+00
       11 -1    0    0    0    0 +2.9763658822e-18 +2.6504710195e-18 +1.1310326846e-15 5.1100000000e-04 5.1099893000e-04 0.0000e+00 1.0000e+00
       50  1    1    2    0    0 +5.2842289717e-02 -2.3152896360e-02 +7.8827482150e+00 7.8829609108e+00 4.9935713700e-03 0.0000e+00 0.0000e+00
       11  1    1    2    0    0 -2.1252481082e-02 +5.1283803517e-02 +4.1215239344e+00 4.1218978031e+00 5.1099893000e-04 0.0000e+00 1.0000e+00
<vert_displacement>
182.72724940348914
</vert_displacement>
</event>
<event>
 4   1200 +8.6263000e+09 4.64014500e-02 7.81665300e-03            nan
       50 -1    0    0    0    0 -3.4207891691e-02 +2.7683273748e-02 +1.5939150247e+01 1.5939211777e+01 4.9935713700e-03 0.0000e+00 0.0000e+00
       11 -1    0    0    0    0 -7.7735650834e-18 +6.2908796644e-18 +3.6220888132e-15 5.1100000000e-04 5.1099893000e-04 0.0000e+00 -1.0000e+00
       50  1    1    2    0    0 -7.3374702114e-02 +3.5730228614e-02 +1.3475196729e+01 1.3475444791e+01 4.9935713700e-03 0.0000e+00 0.0000e+00
       11  1    1    2    0    0 +3.9166810423e-02 -8.0469548655e-03 +2.4639535182e+00 2.4642779863e+00 5.1099893000e-04 0.0000e+00 -1.0000e+00
<vert_displacement>
116.73787024144794
</vert_displacement>
</event>
<event>
 4   1200 +8.6263000e+09 2.49677700e-02 7.81665300e-03            nan
       50 -1    0    0    0    0 +1.7210770788e-02 -5.8938488399e-03 +1.8804350209e+01 1.8804359671e+01 4.9935713700e-03 0.0000e+00 0.0000e+00
       11 -1    0    0    0    0 -9.9073300728e-19 +3.3927769172e-19 -1.0824669425e-15 5.1100000000e-04 5.1099893000e-04 0.0000e+00 1.0000e+00
       50  1    1    2    0    0 +4.1092724567e-02 -6.8647873965e-03 +1.8199245448e+01 1.8199293820e+01 4.9935713700e-03 0.0000e+00 0.0000e+00
       11  1    1    2    0    0 -2.3881953779e-02 +9.7093855659e-04 +6.0510476080e-01 6.0557685152e-01 5.1099893000e-04 0.0000e+00 1.0000e+00
<vert_displacement>
372.90876673218656
</vert_displacement>
</event>
<event>
 4   1200 +8.6263000e+09 1.27542800e-02 7.81665300e-03            nan
       50 -1    0    0    0    0 +1.4603931006e-02 +5.2991915393e-03 +1.4922597903e+01 1.4922606825e+01 4.9935713700e-03 0.0000e+00 0.0000e+00
       11 -1    0    0    0    0 -6.6548983030e-19 -2.4148005607e-19 -6.8001123407e-16 5.1100000000e-04 5.1099893000e-04 0.0000e+00 1.0000e+00
       50  1    1    2    0    0 +2.5967300907e-02 +2.8915105681e-03 +1.4786570227e+01 1.4786594154e+01 4.9935713700e-03 0.0000e+00 0.0000e+00
       11  1    1    2    0    0 -1.1363369901e-02 +2.4076809712e-03 +1.3602767599e-01 1.3652367143e-01 5.1099893000e-04 0.0000e+00 1.0000e+00
<vert_displacement>
425.87365937478546
</vert_displacement>
</event>
<event>
 4   1200 +8.6263000e+09 7.30877600e-03 7.81665300e-03            nan
       50 -1    0    0    0    0 -2.1021789576e-02 -8.4915733944e-03 +1.7683626399e+01 1.7683641638e+01 4.9935713700e-03 0.0000e+00 0.0000e+00
       11 -1    0    0    0    0 -4.7842761280e-19 -1.9325677166e-19 +4.0245551566e-16 5.1100000000e-04 5.1099893000e-04 0.0000e+00 1.0000e+00
       50  1    1    2    0    0 -1.8429034347e-02 -1.3161227865e-02 +1.7655712966e+01 1.7655728195e+01 4.9935713700e-03 0.0000e+00 0.0000e+00
       11  1    1    2    0    0 -2.5927552286e-03 +4.6696544704e-03 +2.7913433512e-02 2.8424442702e-02 5.1099893000e-04 0.0000e+00 1.0000e+00
<vert_displacement>
142.85936772047185
</vert_displacement>
</event>
<event>
 4   1200 +8.6263000e+09 1.01519800e-02 7.81665300e-03            nan
       50 -1    0    0    0    0 -2.0282791698e-02 +2.2854284885e-02 +8.8837296833e+00 8.8837836382e+00 4.9935713700e-03 0.0000e+00 0.0000e+00
       11 -1    0    0    0    0 +9.0301492642e-19 -1.0175009777e-18 -3.9551461286e-16 5.1100000000e-04 5.1099893000e-04 0.0000e+00 1.0000e+00
       50  1    1    2    0    0 -1.3493400077e-02 +2.8520274951e-02 +8.8066092192e+00 8.8066671536e+00 4.9935713700e-03 0.0000e+00 0.0000e+00
       11  1    1    2    0    0 -6.7893916212e-03 -5.6659900660e-03 +7.7120464038e-02 7.7627484664e-02 5.1099893000e-04 0.0000e+00 1.0000e+00
<vert_displacement>
128.23273100974851
</vert_displacement>
</event>
<event>
 4   1200 +8.6263000e+09 2.49164800e-02 7.81665300e-03            nan
       50 -1    0    0    0    0 +2.8313384645e-02 -2.3424181488e-02 +1.6430283836e+01 1.6430325687e+01 4.9935713700e-03 0.0000e+00 0.0000e+00
       11 -1    0    0    0    0 +4.5677176120e-18 -3.7789564078e-18 +2.6506508419e-15 5.1100000000e-04 5.1099893000e-04 0.0000e+00 1.0000e+00
       50  1    1    2    0    0 +4.3312493063e-02 -4.1616770543e-03 +1.5824856137e+01 1.5824916744e+01 4.9935713700e-03 0.0000e+00 0.0000e+00
       11  1    1    2    0    0 -1.4999108418e-02 -1.9262504434e-02 +6.0542769916e-01 6.0591994303e-01 5.1099893000e-04 0.0000e+00 1.0000e+00
<vert_displacement>
460.97358123718749
</vert_displacement>
</event>
<event>
 4   1200 +8.6263000e+09 7.48433400e-03 7.81665300e-03            nan
       50 -1    0    0    0    0 -4.9500354471e-02 -6.3040810827e-03 +1.4481951934e+01 1.4482038764e+01 4.9935713700e-03 0.0000e+00 0.0000e+00
       11 -1    0    0    0    0 +1.1858749099e-19 +1.5102622326e-20 -3.4694263563e-17 5.1100000000e-04 5.1099893000e-04 0.0000e+00 1.0000e+00
       50  1    1    2    0    0 -5.4875325606e-02 -7.3194913121e-03 +1.4451457149e+01 1.4451564052e+01 4.9935713700e-03 0.0000e+00 0.0000e+00
       11  1    1    2    0    0 +5.3749711341e-03 +1.0154102294e-03 +3.0494784670e-02 3.0985712588e-02 5.1099893000e-04 0.0000e+00 1.0000e+00
<vert_displacement>
294.29303467261286
</vert_displacement>
</event>
<event>
 4   1200 +8.6263000e+09 5.25716100e-03 7.81665300e-03            nan
       50 -1    0    0    0    0 -5.8322687367e-02 +2.4608037352e-02 +2.7271611688e+01 2.7271685612e+01 4.9935713700e-03 0.0000e+00 0.0000e+00
       11 -1    0    0    0    0 +7.7164783738e-19 -3.2558065587e-19 -3.6082151100e-16 5.1100000000e-04 5.1099893000e-04 0.0000e+00 1.0000e+00
       50  1    1    2    0    0 -5.9902997948e-02 +2.4173578245e-02 +2.7268964570e+01 2.7269041538e+01 4.9935713700e-03 0.0000e+00 0.0000e+00
       11  1    1    2    0    0 +1.5803105813e-03 +4.3445910768e-04 +2.6471179009e-03 3.1550735867e-03 5.1099893000e-04 0.0000e+00 1.0000e+00
<vert_displacement>
254.38871963267832
</vert_displacement>
</event>
<event>
 4   1200 +8.6263000e+09 6.75834700e-03 7.81665300e-03            nan
       50 -1    0    0    0    0 -3.2566166966e-02 +2.6550003570e-02 +1.3276640058e+01 1.3276707484e+01 4.9935713700e-03 0.0000e+00 0.0000e+00
       11 -1    0    0    0    0 +1.2084394231e-18 -9.8519641660e-19 -4.9265900002e-16 5.1100000000e-04 5.1099893000e-04 0.0000e+00 1.0000e+00
       50  1    1    2    0    0 -3.2248820775e-02 +2.1963167637e-02 +1.3256324900e+01 1.3256383261e+01 4.9935713700e-03 0.0000e+00 0.0000e+00
       11  1    1    2    0    0 -3.1734619122e-04 +4.5868359326e-03 +2.0315157268e-02 2.0835222754e-02 5.1099893000e-04 0.0000e+00 1.0000e+00
<vert_displacement>
180.18572859054504
</vert_displacement>
</event>
<event>
 4   1200 +8.6263000e+09 1.19494400e-02 7.81665300e-03            nan
       50 -1    0    0    0    0 +1.2846694450e-02 -8.9172727713e-03 +4.7644882265e+00 4.7645165076e+00 4.9935713700e-03 0.0000e+00 0.0000e+00
       11 -1    0    0    0    0 +2.9935259495e-19 -2.0778954106e-19 +1.1102170443e-16 5.1100000000e-04 5.1099893000e-04 0.0000e+00 1.0000e+00
       50  1    1    2    0    0 +3.3008623722e-03 -1.4415796885e-02 +4.6462230658e+00 4.6462492856e+00 4.9935713700e-03 0.0000e+00 0.0000e+00
       11  1    1    2    0    0 +9.5458320780e-03 +5.4985241138e-03 +1.1826516071e-01 1.1877822205e-01 5.1099893000e-04 0.0000e+00 1.0000e+00
<vert_displacement>
274.87202528522982
</vert_displacement>
</event>
<event>
 4   1200 +8.6263000e+09 8.78929100e-03 7.81665300e-03            nan
       50 -1    0    0    0    0 -1.8481095497e-02 -3.9953531964e-03 +8.9906340001e+00 8.9906552694e+00 4.9935713700e-03 0.0000e+00 0.0000e+00
       11 -1    0    0    0    0 -2.3820076433e-18 -5.1495658649e-19 +1.1587927193e-15 5.1100000000e-04 5.1099893000e-04 0.0000e+00 1.0000e+00
       50  1    1    2    0    0 -1.4018473536e-02 -9.7460573906e-03 +8.9391522181e+00 8.9391699177e+00 4.9935713700e-03 0.0000e+00 0.0000e+00
       11  1    1    2    0    0 -4.4626219601e-03 +5.7507041943e-03 +5.1481781919e-02 5.1996351631e-02 5.1099893000e-04 0.0000e+00 1.0000e+00
<vert_displacement>
448.14983769531227
</vert_displacement>
</event>
<event>
 4   1200 +8.6263000e+09 1.87455300e-02 7.81665300e-03            nan
       50 -1    0    0    0    0 +3.0745718116e-02 +4.4305422727e-02 +1.8666152153e+01 1.8666230723e+01 4.9935713700e-03 0.0000e+00 0.0000e+00
       11 -1    0    0    0    0 +3.6573645626e-18 +5.2703626047e-18 +2.2204367824e-15 5.1100000000e-04 5.1099893000e-04 0.0000e+00 1.0000e+00
       50  1    1    2    0    0 +3.3297828638e-02 +6.1336102578e-02 +1.8340995946e+01 1.8341129412e+01 4.9935713700e-03 0.0000e+00 0.0000e+00
       11  1    1    2    0    0 -2.5521105213e-03 -1.7030679851e-02 +3.2515620733e-01 3.2561231182e-01 5.1099893000e-04 0.0000e+00 1.0000e+00
<vert_displacement>
89.261598882397038
</vert_displacement>
</event>
<event>
 4   1200 +8.6263000e+09 1.59278100e-02 7.81665300e-03            nan
       50 -1    0    0    0    0 +5.3017588427e-03 -2.7830997770e-02 +1.1607516655e+01 1.1607552305e+01 4.9935713700e-03 0.0000e+00 0.0000e+00
       11 -1    0    0    0    0 +2.0600746788e-19 -1.0814134610e-18 +4.5102676027e-16 5.1100000000e-04 5.1099893000e-04 0.0000e+00 1.0000e+00
       50  1    1    2    0    0 -9.6550298801e-03 -2.4426460081e-02 +1.1379184680e+01 1.1379216089e+01 4.9935713700e-03 0.0000e+00 0.0000e+00
       11  1    1    2    0    0 +1.4956788723e-02 -3.4045376892e-03 +2.2833197488e-01 2.2884721602e-01 5.1099893000e-04 0.0000e+00 1.0000e+00
<vert_displacement>
191.39998049192891
</vert_displacement>
</event>
<event>
 4   1200 +8.6263000e+09 1.53894000e-02 7.81665300e-03            nan
       50 -1    0    0    0    0 -1.1582383247e-02 -1.9080028458e-02 +8.8836574060e+00 8.8836868496e+00 4.9935713700e-03 0.0000e+00 0.0000e+00
       11 -1    0    0    0    0 +7.9611842981e-19 +1.3114712208e-18 -6.1062073620e-16 5.1100000000e-04 5.1099893000e-04 0.0000e+00 1.0000e+00
       50  1    1    2    0    0 -2.1040155892e-02 -2.9446463989e-02 +8.6711797346e+00 8.6712566971e+00 4.9935713700e-03 0.0000e+00 0.0000e+00
       11  1    1    2    0    0 +9.4577726450e-03 +1.0366435530e-02 +2.1247767141e-01 2.1294115248e-01 5.1099893000e-04 0.0000e+00 1.0000e+00
<vert_displacement>
3.4414955076263429
</vert_displacement>
</event>
<event>
 4   1200 +8.6263000e+09 9.48863100e-03 7.81665300e-03            nan
       50 -1    0    0    0    0 -1.4866987303e-04 +1.8359110533e-03 +9.1183086974e-01 9.1184640342e-01 4.9935713700e-03 0.0000e+00 0.0000e+00
       11 -1    0    0    0    0 +6.7881165587e-21 -8.3825848285e-20 -4.1633278481e-17 5.1100000000e-04 5.1099893000e-04 0.0000e+00 1.0000e+00
       50  1    1    2    0    0 +8.0396639644e-04 +9.7099969099e-03 +8.4270467314e-01 8.4277579004e-01 4.9935713700e-03 0.0000e+00 0.0000e+00
       11  1    1    2    0    0 -9.5263626947e-04 -7.8740858566e-03 +6.9126196600e-02 6.9581613378e-02 5.1099893000e-04 0.0000e+00 1.0000e+00
<vert_displacement>
417.01026404478364
</vert_displacement>
</event>
<event>
 4   1200 +8.6263000e+09 2.43338000e-02 7.81665300e-03            nan
       50 -1    0    0    0    0 +4.4407576002e-02 +2.3491309874e-02 +1.5059517238e+01 1.5059601862e+01 4.9935713700e-03 0.0000e+00 0.0000e+00
       11 -1    0    0    0    0 -3.2738127147e-19 -1.7318249694e-19 -1.1102168470e-16 5.1100000000e-04 5.1099893000e-04 0.0000e+00 1.0000e+00
       50  1    1    2    0    0 +2.5963547790e-02 +3.9529118968e-02 +1.4482380694e+01 1.4482458775e+01 4.9935713700e-03 0.0000e+00 0.0000e+00
       11  1    1    2    0    0 +1.8444028212e-02 -1.6037809094e-02 +5.7713654376e-01 5.7765408746e-01 5.1099893000e-04 0.0000e+00 1.0000e+00
<vert_displacement>
193.17481122013464
</vert_displacement>
</event>
<event>
 4   1200 +8.6263000e+09 3.11040400e-02 7.81665300e-03            nan
       50 -1    0    0    0    0 +1.4728041124e-03 -1.5395961529e-02 +8.2990440091e+00 8.2990599230e+00 4.9935713700e-03 0.0000e+00 0.0000e+00
       11 -1    0    0    0    0 -9.3587965393e-20 +9.7832203392e-19 -5.2735502093e-16 5.1100000000e-04 5.1099893000e-04 0.0000e+00 1.0000e+00
       50  1    1    2    0    0 +2.8309733731e-02 -2.8001271942e-02 +7.2415993127e+00 7.2417105061e+00 4.9935713700e-03 0.0000e+00 0.0000e+00
       11  1    1    2    0    0 -2.6836929619e-02 +1.2605310413e-02 +1.0574446963e+00 1.0578604168e+00 5.1099893000e-04 0.0000e+00 1.0000e+00
<vert_displacement>
288.02576013734586
</vert_displacement>
</event>
<event>
 4   1200 +8.6263000e+09 6.42230100e-03 7.81665300e-03            nan
       50 -1    0    0    0    0 +3.2050114284e-02 -1.7825232586e-02 +1.3920186834e+01 1.3920236039e+01 4.9935713700e-03 0.0000e+00 0.0000e+00
       11 -1    0    0    0    0 +2.5721668344e-18 -1.4305556500e-18 +1.1171580415e-15 5.1100000000e-04 5.1099893000e-04 0.0000e+00 1.0000e+00
       50  1    1    2    0    0 +3.5826022425e-02 -1.9136474827e-02 +1.3904198355e+01 1.3904258575e+01 4.9935713700e-03 0.0000e+00 0.0000e+00
       11  1    1    2    0    0 -3.7759081413e-03 +1.3112422406e-03 +1.5988479791e-02 1.6488463981e-02 5.1099893000e-04 0.0000e+00 1.0000e+00
<vert_displacement>
131.01238775768533
</vert_displacement>
</event>
<event>
 4   1200 +8.6263000e+09 2.28040100e-02 7.81665300e-03            nan
       50 -1    0    0    0    0 -2.7972890208e-03 +1.0458905435e-02 +1.4887293846e+01 1.4887298620e+01 4.9935713700e-03 0.0000e+00 0.0000e+00
       11 -1    0    0    0    0 +2.0860835343e-20 -7.7997483466e-20 -1.1102227310e-16 5.1100000000e-04 5.1099893000e-04 0.0000e+00 1.0000e+00
       50  1    1    2    0    0 -4.2268245781e-03 +3.2304995090e-02 +1.4385920203e+01 1.4385957962e+01 4.9935713700e-03 0.0000e+00 0.0000e+00
       11  1    1    2    0    0 +1.4295355573e-03 -2.1846089655e-02 +5.0137364311e-01 5.0185165769e-01 5.1099893000e-04 0.0000e+00 1.0000e+00
<vert_displacement>
300.04527158361299
</vert_displacement>
</event>
<event>
 4   1200 +8.6263000e+09 3.27804400e-02 7.81665300e-03            nan
       50 -1    0    0    0    0 -4.8789816664e-02 +2.1218569025e-02 +1.7093103784e+01 1.7093187315e+01 4.9935713700e-03 0.0000e+00 0.0000e+00
       11 -1    0    0    0    0 -1.2675829064e-18 +5.5126863009e-19 +4.4408705863e-16 5.1100000000e-04 5.1099893000e-04 0.0000e+00 1.0000e+00
       50  1    1    2    0    0 -2.3853365430e-02 -4.1069650241e-03 +1.5995558795e+01 1.5995577887e+01 4.9935713700e-03 0.0000e+00 0.0000e+00
       11  1    1    2    0    0 -2.4936451234e-02 +2.5325534049e-02 +1.0975449892e+00 1.0981204277e+00 5.1099893000e-04 0.0000e+00 1.0000e+00
<vert_displacement>
145.02200699208021
</vert_displacement>
</event>
<event>
 4   1200 +8.6263000e+09 2.00653300e-02 7.81665300e-03            nan
       50 -1    0    0    0    0 +8.6289134217e-03 +5.4090905464e-03 +1.4091920325e+01 1.4091924889e+01 4.9935713700e-03 0.0000e+00 0.0000e+00
       11 -1    0    0    0    0 +7.6905011440e-19 +4.8208407017e-19 +1.2559394686e-15 5.1100000000e-04 5.1099893000e-04 0.0000e+00 1.0000e+00
       50  1    1    2    0    0 -1.0551297066e-02 +9.4257687044e-04 +1.3712113869e+01 1.3712118870e+01 4.9935713700e-03 0.0000e+00 0.0000e+00
       11  1    1    2    0    0 +1.9180210488e-02 +4.4665136760e-03 +3.7980645587e-01 3.8031701941e-01 5.1099893000e-04 0.0000e+00 1.0000e+00
<vert_displacement>
40.297786984097485
</vert_displacement>
</event>
<event>
 4   1200 +8.6263000e+09 1.78215800e-02 7.81665300e-03            nan
       50 -1    0    0    0    0 -2.3506323604e-02 +1.9527910707e-02 +8.4670026907e+00 8.4670593117e+00 4.9935713700e-03 0.0000e+00 0.0000e+00
       11 -1    0    0    0    0 -2.0419650128e-18 +1.6963652466e-18 +7.3551796314e-16 5.1100000000e-04 5.1099893000e-04 0.0000e+00 1.0000e+00
       50  1    1    2    0    0 -1.4425656840e-02 +3.8600808513e-03 +8.1702368293e+00 8.1702520023e+00 4.9935713700e-03 0.0000e+00 0.0000e+00
       11  1    1    2    0    0 -9.0806667637e-03 +1.5667829855e-02 +2.9676586147e-01 2.9731830932e-01 5.1099893000e-04 0.0000e+00 1.0000e+00
<vert_displacement>
410.27476386606361
</vert_displacement>
</event>
<event>
 4   1200 +8.6263000e+09 1.27496000e-02 7.81665300e-03            nan
       50 -1    0    0    0    0 -1.4176364318e-02 -1.1774196072e-02 +1.0061350030e+01 1.0061368146e+01 4.9935713700e-03 0.0000e+00 0.0000e+00
       11 -1    0    0    0    0 -2.4246541884e-18 -2.0137993903e-18 +1.7208428017e-15 5.1100000000e-04 5.1099893000e-04 0.0000e+00 1.0000e+00
       50  1    1    2    0    0 -1.5251329267e-02 +4.7904211128e-05 +9.9248444152e+00 9.9248573897e+00 4.9935713700e-03 0.0000e+00 0.0000e+00
       11  1    1    2    0    0 +1.0749649494e-03 -1.1822100283e-02 +1.3650561483e-01 1.3702175595e-01 5.1099893000e-04 0.0000e+00 1.0000e+00
<vert_displacement>
62.104437363386396
</vert_displacement>
</event>
<event>
 4   1200 +8.6263000e+09 7.42211200e-03 7.81665300e-03            nan
       50 -1    0    0    0    0 -9.4338156486e-03 -6.5077805338e-03 +3.1943378485e+00 3.1943623110e+00 4.9935713700e-03 0.0000e+00 0.0000e+00
       11 -1    0    0    0    0 -5.6354251221e-19 -3.8875160672e-19 +1.9081835421e-16 5.1100000000e-04 5.1099893000e-04 0.0000e+00 1.0000e+00
       50  1    1    2    0    0 -5.6086502898e-03 -1.0470199231e-02 +3.1645533238e+00 3.1645795545e+00 4.9935713700e-03 0.0000e+00 0.0000e+00
       11  1    1    2    0    0 -3.8251653588e-03 +3.9624186972e-03 +2.9784524702e-02 3.0293756512e-02 5.1099893000e-04 0.0000e+00 1.0000e+00
<vert_displacement>
37.902207983864457
</vert_displacement>
</event>
<event>
 4   1200 +8.6263000e+09 1.20405700e-02 7.81665300e-03            nan
       50 -1    0    0    0    0 +5.5642116961e-03 -5.1644808847e-03 +6.3062840525e+00 6.3062905990e+00 4.9935713700e-03 0.0000e+00 0.0000e+00
       11 -1    0    0    0    0 -1.1632515759e-19 +1.0796840336e-19 -1.3183888865e-16 5.1100000000e-04 5.1099893000e-04 0.0000e+00 -1.0000e+00
       50  1    1    2    0    0 +1.3610835670e-02 -1.2386225968e-02 +6.1865233864e+00 6.1865527735e+00 4.9935713700e-03 0.0000e+00 0.0000e+00
       11  1    1    2    0    0 -8.0466239738e-03 +7.2217450830e-03 +1.1976066607e-01 1.2024882543e-01 5.1099893000e-04 0.0000e+00 -1.0000e+00
<vert_displacement>
202.18457030391934
</vert_displacement>
</event>
<event>
 4   1200 +8.6263000e+09 7.61466300e-03 7.81665300e-03            nan
       50 -1    0    0    0    0 -1.5676284888e-03 -4.7903231237e-04 +6.6282173315e-01 6.6284257001e-01 4.9935713700e-03 0.0000e+00 0.0000e+00
       11 -1    0    0    0    0 +4.5130279203e-20 +1.3790807043e-20 -1.9081899884e-17 5.1100000000e-04 5.1099893000e-04 0.0000e+00 1.0000e+00
       50  1    1    2    0    0 -2.6777052918e-03 -6.0782864013e-03 +6.2862541900e-01 6.2868033915e-01 4.9935713700e-03 0.0000e+00 0.0000e+00
       11  1    1    2    0    0 +1.1100768029e-03 +5.5992540889e-03 +3.4196314151e-02 3.4673230860e-02 5.1099893000e-04 0.0000e+00 1.0000e+00
<vert_displacement>
222.24841429146056
</vert_displacement>
</event>
<event>
 4   1200 +8.6263000e+09 6.44145400e-03 7.81665300e-03            nan
       50 -1    0    0    0    0 -8.3603759573e-02 -6.9534738633e-02 +2.9413907741e+01 2.9414109169e+01 4.9935713700e-03 0.0000e+00 0.0000e+00
       11 -1    0    0    0    0 +1.0768445238e-17 +8.9563080525e-18 -3.7886101815e-15 5.1100000000e-04 5.1099893000e-04 0.0000e+00 1.0000e+00
       50  1    1    2    0    0 -8.5690909606e-02 -6.6031462594e-02 +2.9397700594e+01 2.9397900065e+01 4.9935713700e-03 0.0000e+00 0.0000e+00
       11  1    1    2    0    0 +2.0871500326e-03 -3.5032760388e-03 +1.6207147010e-02 1.6720103838e-02 5.1099893000e-04 0.0000e+00 1.0000e+00
<vert_displacement>
322.75307197607532
</vert_displacement>
</event>
<event>
 4   1200 +8.6263000e+09 6.35207900e-02 7.81665300e-03            nan
       50 -1    0    0    0    0 -1.5569595514e-02 +6.7690546600e-02 +2.7998821071e+01 2.7998907670e+01 4.9935713700e-03 0.0000e+00 0.0000e+00
       11 -1    0    0    0    0 -1.8212455111e-18 +7.9180672375e-18 +3.2751478448e-15 5.1100000000e-04 5.1099893000e-04 0.0000e+00 1.0000e+00
       50  1    1    2    0    0 +3.6298279230e-02 +9.6092000387e-02 +2.3278644248e+01 2.3278871412e+01 4.9935713700e-03 0.0000e+00 0.0000e+00
       11  1    1    2    0    0 -5.1867874744e-02 -2.8401453787e-02 +4.7201768224e+00 4.7205472580e+00 5.1099893000e-04 0.0000e+00 1.0000e+00
<vert_displacement>
70.270955722640949
</vert_displacement>
</event>
<event>
 4   1200 +8.6263000e+09 2.01839300e-02 7.81665300e-03            nan
       50 -1    0    0    0    0 -1.0489459394e-02 -9.6400657279e-03 +4.0466381779e+00 4.0466663364e+00 4.9935713700e-03 0.0000e+00 0.0000e+00
       11 -1    0    0    0    0 +1.3849593050e-18 +1.2728109457e-18 -5.3429151953e-16 5.1100000000e-04 5.1099893000e-04 0.0000e+00 1.0000e+00
       50  1    1    2    0    0 -2.7709998667e-02 -1.7566797380e-03 +3.6289823698e+00 3.6290920222e+00 4.9935713700e-03 0.0000e+00 0.0000e+00
       11  1    1    2    0    0 +1.7220539274e-02 -7.8833859900e-03 +4.1765580808e-01 4.1808531413e-01 5.1099893000e-04 0.0000e+00 1.0000e+00
<vert_displacement>
458.12077109077836
</vert_displacement>
</event>
<event>
 4   1200 +8.6263000e+09 8.67671400e-03 7.81665300e-03            nan
       50 -1    0    0    0    0 +1.2249546907e-02 +9.3352612145e-03 +9.1614949084e+00 9.1615092147e+00 4.9935713700e-03 0.0000e+00 0.0000e+00
       11 -1    0    0    0    0 +6.0305465013e-19 +4.5958211583e-19 +4.5102746644e-16 5.1100000000e-04 5.1099893000e-04 0.0000e+00 1.0000e+00
       50  1    1    2    0    0 +5.0894935893e-03 +9.1197116356e-03 +9.1119675575e+00 9.1119749109e+00 4.9935713700e-03 0.0000e+00 0.0000e+00
       11  1    1    2    0    0 +7.1600533180e-03 +2.1554957888e-04 +4.9527350893e-02 5.0045303791e-02 5.1099893000e-04 0.0000e+00 1.0000e+00
<vert_displacement>
361.26166965159058
</vert_displacement>
</event>
<event>
 4   1200 +8.6263000e+09 1.12095200e-02 7.81665300e-03            nan
       50 -1    0    0    0    0 -3.8215368302e-02 -4.6566103654e-02 +1.9427660703e+01 1.9427754737e+01 4.9935713700e-03 0.0000e+00 0.0000e+00
       11 -1    0    0    0    0 -1.7470915712e-18 -2.1288620471e-18 +8.8817415006e-16 5.1100000000e-04 5.1099893000e-04 0.0000e+00 1.0000e+00
       50  1    1    2    0    0 -3.9450071360e-02 -5.6262113437e-02 +1.9328576787e+01 1.9328699575e+01 4.9935713700e-03 0.0000e+00 0.0000e+00
       11  1    1    2    0    0 +1.2347030581e-03 +9.6960097838e-03 +9.9083916190e-02 9.9566162248e-02 5.1099893000e-04 0.0000e+00 1.0000e+00
<vert_displacement>
107.03128619193154
</vert_displacement>
</event>
<event>
 4   1200 +8.6263000e+09 1.59581600e-02 7.81665300e-03            nan
       50 -1    0    0    0    0 -8.5991064292e-03 +5.4117573733e-03 +9.7960763008e+00 9.7960828426e+00 4.9935713700e-03 0.0000e+00 0.0000e+00
       11 -1    0    0    0    0 -4.9946496606e-19 +3.1433303391e-19 +5.6898899408e-16 5.1100000000e-04 5.1099893000e-04 0.0000e+00 1.0000e+00
       50  1    1    2    0    0 +6.7559214073e-03 +5.6243147370e-03 +9.5658721223e+00 9.5658774648e+00 4.9935713700e-03 0.0000e+00 0.0000e+00
       11  1    1    2    0    0 -1.5355027837e-02 -2.1255736371e-04 +2.3020417850e-01 2.3071637779e-01 5.1099893000e-04 0.0000e+00 1.0000e+00
<vert_displacement>
285.68527567509125
</vert_displacement>
</event>
<event>
 4   1200 +8.6263000e+09 8.91597700e-03 7.81665300e-03            nan
       50 -1    0    0    0    0 +1.3711878890e-02 +3.1340366398e-03 +1.0906279370e+01 1.0906289584e+01 4.9935713700e-03 0.0000e+00 0.0000e+00
       11 -1    0    0    0    0 -8.0259798276e-19 -1.8344469821e-19 -6.3837770827e-16 5.1100000000e-04 5.1099893000e-04 0.0000e+00 1.0000e+00
       50  1    1    2    0    0 +7.1464782871e-03 -3.9357111982e-04 +1.0852637144e+01 1.0852640653e+01 4.9935713700e-03 0.0000e+00 0.0000e+00
       11  1    1    2    0    0 +6.5654006033e-03 +3.5276077596e-03 +5.3642226134e-02 5.4159930263e-02 5.1099893000e-04 0.0000e+00 1.0000e+00
<vert_displacement>
98.805546972953721
</vert_displacement>
</event>
<event>
 4   1200 +8.6263000e+09 1.24244500e-02 7.81665300e-03            nan
       50 -1    0    0    0    0 -3.6039837486e-02 -2.1044555302e-02 +1.1056605739e+01 1.1056685631e+01 4.9935713700e-03 0.0000e+00 0.0000e+00
       11 -1    0    0    0    0 +7.6900129424e-19 +4.4903893560e-19 -2.3592071209e-16 5.1100000000e-04 5.1099893000e-04 0.0000e+00 1.0000e+00
       50  1    1    2    0    0 -4.2700739547e-02 -1.1894212535e-02 +1.0928461390e+01 1.0928552425e+01 4.9935713700e-03 0.0000e+00 0.0000e+00
       11  1    1    2    0    0 +6.6609020608e-03 -9.1503427673e-03 +1.2814434972e-01 1.2864420653e-01 5.1099893000e-04 0.0000e+00 1.0000e+00
<vert_displacement>
125.44321968918833
</vert_displacement>
</event>
<event>
 4   1200 +8.6263000e+09 2.09806500e-02 7.81665300e-03            nan
       50 -1    0    0    0    0 +1.2404170420e-03 +1.2725880406e-03 +3.6160397619e+00 3.6160436465e+00 4.9935713700e-03 0.0000e+00 0.0000e+00
       11 -1    0    0    0    0 +9.5210470886e-20 +9.7679814517e-20 +2.7755572264e-16 5.1100000000e-04 5.1099893000e-04 0.0000e+00 1.0000e+00
       50  1    1    2    0    0 +1.8407113211e-02 -9.6169733925e-03 +3.1489228592e+00 3.1489953028e+00 4.9935713700e-03 0.0000e+00 0.0000e+00
       11  1    1    2    0    0 -1.7166696169e-02 +1.0889561433e-02 +4.6711690261e-01 4.6755934364e-01 5.1099893000e-04 0.0000e+00 1.0000e+00
<vert_displacement>
383.32884172472370
</vert_displacement>
</event>
<event>
 4   1200 +8.6263000e+09 2.00750500e-02 7.81665300e-03            nan
       50 -1    0    0    0    0 -2.4188664096e-03 +1.0693668107e-02 +6.0045020078e+00 6.0045140939e+00 4.9935713700e-03 0.0000e+00 0.0000e+00
       11 -1    0    0    0    0 +4.1929112645e-20 -1.8536617518e-19 -1.0408323505e-16 5.1100000000e-04 5.1099893000e-04 0.0000e+00 1.0000e+00
       50  1    1    2    0    0 +1.2979407383e-02 +2.2065063287e-02 +5.6082727449e+00 5.6083333931e+00 4.9935713700e-03 0.0000e+00 0.0000e+00
       11  1    1    2    0    0 -1.5398273793e-02 -1.1371395180e-02 +3.9622926297e-01 3.9669170071e-01 5.1099893000e-04 0.0000e+00 1.0000e+00
<vert_displacement>
296.67918667061832
</vert_displacement>
</event>
<event>
 4   1200 +8.6263000e+09 7.83697000e-03 7.81665300e-03            nan
       50 -1    0    0    0    0 +3.8963816547e-02 +1.6783327724e-02 +1.3723455798e+01 1.3723522282e+01 4.9935713700e-03 0.0000e+00 0.0000e+00
       11 -1    0    0    0    0 +8.2743800470e-19 +3.5641177981e-19 +2.9143215139e-16 5.1100000000e-04 5.1099893000e-04 0.0000e+00 -1.0000e+00
       50  1    1    2    0    0 +3.6661309866e-02 +2.2364361910e-02 +1.3687663484e+01 1.3687731762e+01 4.9935713700e-03 0.0000e+00 0.0000e+00
       11  1    1    2    0    0 +2.3025066818e-03 -5.5810341859e-03 +3.5792313716e-02 3.6301519537e-02 5.1099893000e-04 0.0000e+00 -1.0000e+00
<vert_displacement>
326.52802329861635
</vert_displacement>
</event>
<event>
 4   1200 +8.6263000e+09 6.40602100e-03 7.81665300e-03            nan
       50 -1    0    0    0    0 -2.9857737614e-02 +3.4289500712e-02 +1.7319632312e+01 1.7319692712e+01 4.9935713700e-03 0.0000e+00 0.0000e+00
       11 -1    0    0    0    0 -3.5886262922e-18 +4.1212835812e-18 +2.0816609983e-15 5.1100000000e-04 5.1099893000e-04 0.0000e+00 1.0000e+00
       50  1    1    2    0    0 -3.2408383151e-02 +3.1183196248e-02 +1.7303864417e+01 1.7303923583e+01 4.9935713700e-03 0.0000e+00 0.0000e+00
       11  1    1    2    0    0 +2.5506455366e-03 +3.1063044639e-03 +1.5767895884e-02 1.6280128396e-02 5.1099893000e-04 0.0000e+00 1.0000e+00
<vert_displacement>
367.19058319029102
</vert_displacement>
</event>
<event>
 4   1200 +8.6263000e+09 1.00533700e-02 7.81665300e-03            nan
       50 -1    0    0    0    0 -1.0317796755e-02 -5.3171988764e-03 +3.9899046831e+00 3.9899246917e+00 4.9935713700e-03 0.0000e+00 0.0000e+00
       11 -1    0    0    0    0 +5.5625579850e-19 +2.8666223778e-19 -2.1510480078e-16 5.1100000000e-04 5.1099893000e-04 0.0000e+00 1.0000e+00
       50  1    1    2    0    0 -1.7211559606e-02 -1.3034623057e-04 +3.9139333343e+00 3.9139743658e+00 4.9935713700e-03 0.0000e+00 0.0000e+00
       11  1    1    2    0    0 +6.8937628511e-03 -5.1868526458e-03 +7.5971348807e-02 7.6461325950e-02 5.1099893000e-04 0.0000e+00 1.0000e+00
<vert_displacement>
145.55745326182091
</vert_displacement>
</event>
<event>
 4   1200 +8.6263000e+09 1.24134400e-02 7.81665300e-03            nan
       50 -1    0    0    0    0 -5.9764049945e-02 -1.5981864480e-02 +2.2694525876e+01 2.2694610744e+01 4.9935713700e-03 0.0000e+00 0.0000e+00
       11 -1    0    0    0    0 +5.5184165880e-18 +1.4757130103e-18 -2.0955381732e-15 5.1100000000e-04 5.1099893000e-04 0.0000e+00 1.0000e+00
       50  1    1    2    0    0 -6.8740717779e-02 -2.2408152580e-02 +2.2567404537e+01 2.2567520907e+01 4.9935713700e-03 0.0000e+00 0.0000e+00
       11  1    1    2    0    0 +8.9766678338e-03 +6.4262880993e-03 +1.2712133841e-01 1.2760083676e-01 5.1099893000e-04 0.0000e+00 1.0000e+00
<vert_displacement>
162.84895843018936
</vert_displacement>
</event>
<event>
 4   1200 +8.6263000e+09 4.36934000e-02 7.81665300e-03            nan
       50 -1    0    0    0    0 +1.1428085836e-01 +2.8095868526e-02 +4.1673950687e+01 4.1674117150e+01 4.9935713700e-03 0.0000e+00 0.0000e+00
       11 -1    0    0    0    0 -3.4250730678e-18 -8.4205180103e-19 -1.2489959226e-15 5.1100000000e-04 5.1099893000e-04 0.0000e+00 1.0000e+00
       50  1    1    2    0    0 +1.3791268641e-01 -5.5652331462e-03 +3.9740512527e+01 3.9740752531e+01 4.9935713700e-03 0.0000e+00 0.0000e+00
       11  1    1    2    0    0 -2.3631828053e-02 +3.3661101672e-02 +1.9334381599e+00 1.9338756196e+00 5.1099893000e-04 0.0000e+00 1.0000e+00
<vert_displacement>
445.25467069057402
</vert_displacement>
</event>
<event>
 4   1200 +8.6263000e+09 6.22091900e-03 7.81665300e-03            nan
       50 -1    0    0    0    0 +1.5282583060e-02 +2.2156380860e-03 +1.4876433915e+01 1.4876442768e+01 4.9935713700e-03 0.0000e+00 0.0000e+00
       11 -1    0    0    0    0 +5.7026658891e-20 +8.2676100535e-21 +5.5511121324e-17 5.1100000000e-04 5.1099893000e-04 0.0000e+00 1.0000e+00
       50  1    1    2    0    0 +1.2588312255e-02 -3.5140539868e-04 +1.4862956570e+01 1.4862962744e+01 4.9935713700e-03 0.0000e+00 0.0000e+00
       11  1    1    2    0    0 +2.6942708055e-03 +2.5670434846e-03 +1.3477345262e-02 1.3991024360e-02 5.1099893000e-04 0.0000e+00 1.0000e+00
<vert_displacement>
347.74998684540782
</vert_displacement>
</event>
<event>
 4   1200 +8.6263000e+09 2.18698800e-02 7.81665300e-03            nan
       50 -1    0    0    0    0 -1.8289144623e-02 -5.7967897850e-02 +2.4885218682e+01 2.4885293419e+01 4.9935713700e-03 0.0000e+00 0.0000e+00
       11 -1    0    0    0    0 -1.1525222632e-18 -3.6529479207e-18 +1.5681853442e-15 5.1100000000e-04 5.1099893000e-04 0.0000e+00 1.0000e+00
       50  1    1    2    0    0 -2.6400865886e-02 -3.7369161149e-02 +2.4433442505e+01 2.4433485856e+01 4.9935713700e-03 0.0000e+00 0.0000e+00
       11  1    1    2    0    0 +8.1117212629e-03 -2.0598736701e-02 +4.5177617662e-01 4.5231856346e-01 5.1099893000e-04 0.0000e+00 1.0000e+00
<vert_displacement>
274.32258304818231
</vert_displacement>
</event>
<event>
 4   1200 +8.6263000e+09 1.80971600e-02 7.81665300e-03            nan
       50 -1    0    0    0    0 -7.1548861860e-02 +1.0825612252e-03 +2.3715684674e+01 2.3715793154e+01 4.9935713700e-03 0.0000e+00 0.0000e+00
       11 -1    0    0    0    0 -1.1304441026e-18 +1.7104044998e-20 +3.7469856518e-16 5.1100000000e-04 5.1099893000e-04 0.0000e+00 1.0000e+00
       50  1    1    2    0    0 -8.6882125632e-02 +7.3057752357e-03 +2.3415777011e+01 2.3415939866e+01 4.9935713700e-03 0.0000e+00 0.0000e+00
       11  1    1    2    0    0 +1.5333263772e-02 -6.2232140104e-03 +2.9990766331e-01 3.0036428717e-01 5.1099893000e-04 0.0000e+00 1.0000e+00
<vert_displacement>
35.026348379131377
</vert_displacement>
</event>
<event>
 4   1200 +8.6263000e+09 1.43984400e-02 7.81665300e-03            nan
       50 -1    0    0    0    0 -7.0919769550e-03 -1.3650880985e-03 +3.4378700643e+00 3.4378812769e+00 4.9935713700e-03 0.0000e+00 0.0000e+00
       11 -1    0    0    0    0 -1.7177042582e-19 -3.3062961915e-20 +8.3266543110e-17 5.1100000000e-04 5.1099893000e-04 0.0000e+00 1.0000e+00
       50  1    1    2    0    0 -2.9110562723e-04 +1.0595914666e-02 +3.2489520754e+00 3.2489732043e+00 4.9935713700e-03 0.0000e+00 0.0000e+00
       11  1    1    2    0    0 -6.8008713277e-03 -1.1961002765e-02 +1.8891798884e-01 1.8941907260e-01 5.1099893000e-04 0.0000e+00 1.0000e+00
<vert_displacement>
220.96091092302899
</vert_displacement>
</event>
<event>
 4   1200 +8.6263000e+09 6.79156600e-03 7.81665300e-03            nan
       50 -1    0    0    0    0 +8.7026488448e-03 -5.1262472213e-03 +3.0106979924e+00 3.0107190755e+00 4.9935713700e-03 0.0000e+00 0.0000e+00
       11 -1    0    0    0    0 -4.0114563041e-20 +2.3629261733e-20 -1.3877709714e-17 5.1100000000e-04 5.1099893000e-04 0.0000e+00 1.0000e+00
       50  1    1    2    0    0 +7.5503875976e-03 -9.5625301067e-03 +2.9898106199e+00 2.9898396160e+00 4.9935713700e-03 0.0000e+00 0.0000e+00
       11  1    1    2    0    0 +1.1522612471e-03 +4.4362828854e-03 +2.0887372484e-02 2.1390459580e-02 5.1099893000e-04 0.0000e+00 1.0000e+00
<vert_displacement>
395.04181120012339
</vert_displacement>
</event>
<event>
 4   1200 +8.6263000e+09 1.08372100e-02 7.81665300e-03            nan
       50 -1    0    0    0    0 -2.8114314866e-03 +3.4910279051e-02 +1.8286102667e+01 1.8286136889e+01 4.9935713700e-03 0.0000e+00 0.0000e+00
       11 -1    0    0    0    0 +3.0938111413e-19 -3.8416660975e-18 -2.0122755413e-15 5.1100000000e-04 5.1099893000e-04 0.0000e+00 1.0000e+00
       50  1    1    2    0    0 +3.3877124888e-03 +4.2102262969e-02 +1.8195116065e+01 1.8195165777e+01 4.9935713700e-03 0.0000e+00 0.0000e+00
       11  1    1    2    0    0 -6.1991439754e-03 -7.1919839178e-03 +9.0986602096e-02 9.1482112457e-02 5.1099893000e-04 0.0000e+00 1.0000e+00
<vert_displacement>
428.83772828236329
</vert_displacement>
</event>
<event>
 4   1200 +8.6263000e+09 1.53610700e-02 7.81665300e-03            nan
       50 -1    0    0    0    0 -3.9565967007e-03 -1.2301112840e-02 +7.4652764864e+00 7.4652893398e+00 4.9935713700e-03 0.0000e+00 0.0000e+00
       11 -1    0    0    0    0 +2.7582063085e-19 +8.5753008463e-19 -5.2041626319e-16 5.1100000000e-04 5.1099893000e-04 0.0000e+00 1.0000e+00
       50  1    1    2    0    0 +1.0644397405e-02 -1.0894983932e-02 +7.2527155785e+00 7.2527332918e+00 4.9935713700e-03 0.0000e+00 0.0000e+00
       11  1    1    2    0    0 -1.4600994106e-02 -1.4061289080e-03 +2.1256090790e-01 2.1306704793e-01 5.1099893000e-04 0.0000e+00 1.0000e+00
<vert_displacement>
404.17040335737329
</vert_displacement>
</event>
<event>
 4   1200 +8.6263000e+09 1.08539800e-02 7.81665300e-03            nan
       50 -1    0    0    0    0 -1.4855279085e-02 +2.3560230674e-03 +1.1652123064e+01 1.1652133842e+01 4.9935713700e-03 0.0000e+00 0.0000e+00
       11 -1    0    0    0    0 +5.3078285752e-20 -8.4181296696e-21 -4.1633328738e-17 5.1100000000e-04 5.1099893000e-04 0.0000e+00 1.0000e+00
       50  1    1    2    0    0 -1.4220388416e-02 +1.1960630101e-02 +1.1560522481e+01 1.1560538493e+01 4.9935713700e-03 0.0000e+00 0.0000e+00
       11  1    1    2    0    0 -6.3489066868e-04 -9.6046070341e-03 +9.1600583040e-02 9.2106348835e-02 5.1099893000e-04 0.0000e+00 1.0000e+00
<vert_displacement>
447.66716702408979
</vert_displacement>
</event>
<event>
 4   1200 +8.6263000e+09 1.25659600e-02 7.81665300e-03            nan
       50 -1    0    0    0    0 -5.8918101209e-03 +9.8291282829e-03 +5.6318166896e+00 5.6318305626e+00 4.9935713700e-03 0.0000e+00 0.0000e+00
       11 -1    0    0    0    0 -7.5495822157e-19 +1.2594739233e-18 +7.2164347203e-16 5.1100000000e-04 5.1099893000e-04 0.0000e+00 1.0000e+00
       50  1    1    2    0    0 +4.7408328342e-03 +1.4377747642e-02 +5.4985345531e+00 5.4985576620e+00 4.9935713700e-03 0.0000e+00 0.0000e+00
       11  1    1    2    0    0 -1.0632642955e-02 -4.5486193589e-03 +1.3328213648e-01 1.3378390060e-01 5.1099893000e-04 0.0000e+00 1.0000e+00
<vert_displacement>
30.379958014514948
</vert_displacement>
</event>
<event>
 4   1200 +8.6263000e+09 1.34903200e-02 7.81665300e-03            nan
       50 -1    0    0    0    0 +1.5767109924e-02 -8.6066956136e-03 +7.0207142052e+00 7.0207389614e+00 4.9935713700e-03 0.0000e+00 0.0000e+00
       11 -1    0    0    0    0 +5.6099905203e-19 -3.0622911260e-19 +2.4979936289e-16 5.1100000000e-04 5.1099893000e-04 0.0000e+00 1.0000e+00
       50  1    1    2    0    0 +8.9228771469e-03 +2.3059751148e-03 +6.8635263239e+00 6.8635343279e+00 4.9935713700e-03 0.0000e+00 0.0000e+00
       11  1    1    2    0    0 +6.8442327771e-03 -1.0912670728e-02 +1.5718788128e-01 1.5771563349e-01 5.1099893000e-04 0.0000e+00 1.0000e+00
<vert_displacement>
495.36840339248255
</vert_displacement>
</event>
<event>
 4   1200 +8.6263000e+09 2.91759500e-02 7.81665300e-03            nan
       50 -1    0    0    0    0 +3.9504938490e-02 +2.8003986892e-02 +1.6017592040e+01 1.6017666015e+01 4.9935713700e-03 0.0000e+00 0.0000e+00
       11 -1    0    0    0    0 -1.5060004319e-18 -1.0675631444e-18 -6.1061987317e-16 5.1100000000e-04 5.1099893000e-04 0.0000e+00 1.0000e+00
       50  1    1    2    0    0 +6.5567829642e-02 +3.2235317723e-02 +1.5163360217e+01 1.5163537063e+01 4.9935713700e-03 0.0000e+00 0.0000e+00
       11  1    1    2    0    0 -2.6062891152e-02 -4.2313308314e-03 +8.5423182248e-01 8.5463995116e-01 5.1099893000e-04 0.0000e+00 1.0000e+00
<vert_displacement>
180.89019467581403
</vert_displacement>
</event>
<event>
 4   1200 +8.6263000e+09 4.09689900e-02 7.81665300e-03            nan
       50 -1    0    0    0    0 +1.3985350289e-02 +4.0509508461e-03 +9.0332737648e+00 9.0332868794e+00 4.9935713700e-03 0.0000e+00 0.0000e+00
       11 -1    0    0    0    0 +8.1645349326e-19 +2.3649124985e-19 +5.2735525165e-16 5.1100000000e-04 5.1099893000e-04 0.0000e+00 1.0000e+00
       50  1    1    2    0    0 -2.2447076959e-02 -2.0433848306e-02 +6.9192112500e+00 6.9192796353e+00 4.9935713700e-03 0.0000e+00 0.0000e+00
       11  1    1    2    0    0 +3.6432427248e-02 +2.4484799152e-02 +2.1140625148e+00 2.1145182441e+00 5.1099893000e-04 0.0000e+00 1.0000e+00
<vert_displacement>
8.4286422993553032
</vert_displacement>
</event>
<event>
 4   1200 +8.6263000e+09 1.57796700e-02 7.81665300e-03            nan
       50 -1    0    0    0    0 -6.8902014019e-03 -4.9857762342e-04 +8.2288954665e+00 8.2288998814e+00 4.9935713700e-03 0.0000e+00 0.0000e+00
       11 -1    0    0    0    0 -6.5653655016e-19 -4.7507237274e-20 +7.8409473484e-16 5.1100000000e-04 5.1099893000e-04 0.0000e+00 1.0000e+00
       50  1    1    2    0    0 -1.8818871374e-02 -9.2729593386e-03 +8.0034376087e+00 8.0034666633e+00 4.9935713700e-03 0.0000e+00 0.0000e+00
       11  1    1    2    0    0 +1.1928669972e-02 +8.7743817152e-03 +2.2545785776e-01 2.2594421809e-01 5.1099893000e-04 0.0000e+00 1.0000e+00
<vert_displacement>
415.84148755536671
</vert_displacement>
</event>
<event>
 4   1200 +8.6263000e+09 2.05416500e-02 7.81665300e-03            nan
       50 -1    0    0    0    0 +2.1789586662e-03 +4.8563707723e-02 +1.9743557792e+01 1.9743618271e+01 4.9935713700e-03 0.0000e+00 0.0000e+00
       11 -1    0    0    0    0 +1.5469058320e-19 +3.4476781900e-18 +1.4016523199e-15 5.1100000000e-04 5.1099893000e-04 0.0000e+00 1.0000e+00
       50  1    1    2    0    0 -1.6769385647e-02 +5.3884567554e-02 +1.9347087534e+01 1.9347170484e+01 4.9935713700e-03 0.0000e+00 0.0000e+00
       11  1    1    2    0    0 +1.8948344313e-02 -5.3208598304e-03 +3.9647025884e-01 3.9695878699e-01 5.1099893000e-04 0.0000e+00 1.0000e+00
<vert_displacement>
366.24989662534585
</vert_displacement>
</event>
<event>
 4   1200 +8.6263000e+09 3.34732900e-02 7.81665300e-03            nan
       50 -1    0    0    0    0 +7.6510735798e-03 +1.1401475400e-02 +5.1819245844e+00 5.1819451818e+00 4.9935713700e-03 0.0000e+00 0.0000e+00
       11 -1    0    0    0    0 -5.7373063475e-19 -8.5496181029e-19 -3.8857669451e-16 5.1100000000e-04 5.1099893000e-04 0.0000e+00 1.0000e+00
       50  1    1    2    0    0 +3.7760919506e-02 +1.0757778125e-03 +3.6619409591e+00 3.6621392066e+00 4.9935713700e-03 0.0000e+00 0.0000e+00
       11  1    1    2    0    0 -3.0109845926e-02 +1.0325697588e-02 +1.5199836253e+00 1.5203169752e+00 5.1099893000e-04 0.0000e+00 1.0000e+00
<vert_displacement>
427.42229543998781
</vert_displacement>
</event>
<event>
 4   1200 +8.6263000e+09 5.23201900e-02 7.81665300e-03            nan
       50 -1    0    0    0    0 -1.1607228168e-02 -4.5049940461e-03 +1.0754629920e+01 1.0754638287e+01 4.9935713700e-03 0.0000e+00 0.0000e+00
       11 -1    0    0    0    0 +7.4889858041e-20 +2.9066230085e-20 -6.9388892538e-17 5.1100000000e-04 5.1099893000e-04 0.0000e+00 1.0000e+00
       50  1    1    2    0    0 +4.6843176663e-02 -6.6905430124e-04 +4.8370466160e+00 4.8372760550e+00 4.9935713700e-03 0.0000e+00 0.0000e+00
       11  1    1    2    0    0 -5.8450404832e-02 -3.8359397448e-03 +5.9175833043e+00 5.9178732319e+00 5.1099893000e-04 0.0000e+00 1.0000e+00
<vert_displacement>
284.24994325088807
</vert_displacement>
</event>
<event>
 4   1200 +8.6263000e+09 6.86082300e-03 7.81665300e-03            nan
       50 -1    0    0    0    0 +3.9853215688e-02 +1.6547383920e-02 +2.5061238661e+01 2.5061276309e+01 4.9935713700e-03 0.0000e+00 0.0000e+00
       11 -1    0    0    0    0 +2.8910242326e-18 +1.2003771107e-18 +1.8179875078e-15 5.1100000000e-04 5.1099893000e-04 0.0000e+00 1.0000e+00
       50  1    1    2    0    0 +3.6850407491e-02 +2.0183291389e-02 +2.5039563150e+01 2.5039598899e+01 4.9935713700e-03 0.0000e+00 0.0000e+00
       11  1    1    2    0    0 +3.0028081969e-03 -3.6359074692e-03 +2.1675510518e-02 2.2188410405e-02 5.1099893000e-04 0.0000e+00 1.0000e+00
<vert_displacement>
286.18831143765277
</vert_displacement>
</event>
<event>
 4   1200 +8.6263000e+09 9.65057000e-03 7.81665300e-03            nan
       50 -1    0    0    0    0 +9.9020979385e-02 -2.1307764874e-02 +4.4262068072e+01 4.4262184244e+01 4.9935713700e-03 0.0000e+00 0.0000e+00
       11 -1    0    0    0    0 -4.4086230382e-18 +9.4866667345e-19 -1.9706407090e-15 5.1100000000e-04 5.1099893000e-04 0.0000e+00 1.0000e+00
       50  1    1    2    0    0 +1.0109277758e-01 -1.3321755413e-02 +4.4195235686e+01 4.4195353596e+01 4.9935713700e-03 0.0000e+00 0.0000e+00
       11  1    1    2    0    0 -2.0717981964e-03 -7.9860094604e-03 +6.6832385874e-02 6.7341648453e-02 5.1099893000e-04 0.0000e+00 1.0000e+00
<vert_displacement>
269.22093786139362
</vert_displacement>
</event>
<event>
 4   1200 +8.6263000e+09 1.30286900e-02 7.81665300e-03            nan
       50 -1    0    0    0    0 -4.2476306279e-02 -3.1977434799e-03 +1.3797764504e+01 1.3797831159e+01 4.9935713700e-03 0.0000e+00 0.0000e+00
       11 -1    0    0    0    0 -7.0492048741e-19 -5.3068524314e-20 +2.2898240764e-16 5.1100000000e-04 5.1099893000e-04 0.0000e+00 1.0000e+00
       50  1    1    2    0    0 -3.1297461446e-02 +2.2672103497e-03 +1.3654612058e+01 1.3654649028e+01 4.9935713700e-03 0.0000e+00 0.0000e+00
       11  1    1    2    0    0 -1.1178844832e-02 -5.4649538296e-03 +1.4315244543e-01 1.4369313151e-01 5.1099893000e-04 0.0000e+00 1.0000e+00
<vert_displacement>
159.99363609882974
</vert_displacement>
</event>
<event>
 4   1200 +8.6263000e+09 2.04478400e-02 7.81665300e-03            nan
       50 -1    0    0    0    0 -6.6405244017e-02 -4.3982371238e-02 +2.5276197004e+01 2.5276322992e+01 4.9935713700e-03 0.0000e+00 0.0000e+00
       11 -1    0    0    0    0 -4.3751200872e-19 -2.8977855399e-19 +1.6653262687e-16 5.1100000000e-04 5.1099893000e-04 0.0000e+00 1.0000e+00
       50  1    1    2    0    0 -5.4461888188e-02 -2.6749464626e-02 +2.4885486945e+01 2.4885561417e+01 4.9935713700e-03 0.0000e+00 0.0000e+00
       11  1    1    2    0    0 -1.1943355829e-02 -1.7232906613e-02 +3.9071005870e-01 3.9127257495e-01 5.1099893000e-04 0.0000e+00 1.0000e+00
<vert_displacement>
58.573246242001431
</vert_displacement>
</event>
<event>
 4   1200 +8.6263000e+09 6.37853800e-03 7.81665300e-03            nan
       50 -1    0    0    0    0 +6.7175975983e-04 +1.5612422770e-02 +2.1040303435e+01 2.1040309831e+01 4.9935713700e-03 0.0000e+00 0.0000e+00
       11 -1    0    0    0    0 +5.7157315019e-20 +1.3283977693e-18 +1.7902341334e-15 5.1100000000e-04 5.1099893000e-04 0.0000e+00 1.0000e+00
       50  1    1    2    0    0 +2.3189365878e-03 +1.1990552963e-02 +2.1024883420e+01 2.1024887560e+01 4.9935713700e-03 0.0000e+00 0.0000e+00
       11  1    1    2    0    0 -1.6471768280e-03 +3.6218698069e-03 +1.5420015267e-02 1.5933270950e-02 5.1099893000e-04 0.0000e+00 1.0000e+00
<vert_displacement>
166.43953443581640
</vert_displacement>
</event>
<event>
 4   1200 +8.6263000e+09 1.41121600e-02 7.81665300e-03            nan
       50 -1    0    0    0    0 +1.2377063848e-01 -6.3835856648e-02 +3.5668828028e+01 3.5669100241e+01 4.9935713700e-03 0.0000e+00 0.0000e+00
       11 -1    0    0    0    0 -9.9200290603e-18 +5.1163471467e-18 -2.8588024990e-15 5.1100000000e-04 5.1099893000e-04 0.0000e+00 1.0000e+00
       50  1    1    2    0    0 +1.1323014833e-01 -5.4852332975e-02 +3.5497586700e+01 3.5497810021e+01 4.9935713700e-03 0.0000e+00 0.0000e+00
       11  1    1    2    0    0 +1.0540490154e-02 -8.9835236732e-03 +1.7124132845e-01 1.7180122037e-01 5.1099893000e-04 0.0000e+00 1.0000e+00
<vert_displacement>
101.88328008015286
</vert_displacement>
</event>
<event>
 4   1200 +8.6263000e+09 1.01787300e-02 7.81665300e-03            nan
       50 -1    0    0    0    0 +4.2524450487e-02 +5.2526763609e-02 +5.0243049191e+01 5.0243094892e+01 4.9935713700e-03 0.0000e+00 0.0000e+00
       11 -1    0    0    0    0 -3.1831115812e-18 -3.9318215204e-18 -3.7608770936e-15 5.1100000000e-04 5.1099893000e-04 0.0000e+00 1.0000e+00
       50  1    1    2    0    0 +5.0211044260e-02 +5.6756563067e-02 +5.0165941762e+01 5.0165999245e+01 4.9935713700e-03 0.0000e+00 0.0000e+00
       11  1    1    2    0    0 -7.6865937724e-03 -4.2297994577e-03 +7.7107429154e-02 7.7606647124e-02 5.1099893000e-04 0.0000e+00 1.0000e+00
<vert_displacement>
360.68165149157755
</vert_displacement>
</event>
<event>
 4   1200 +8.6263000e+09 1.83174400e-02 7.81665300e-03            nan
       50 -1    0    0    0    0 -6.7349633531e-03 -4.8493149896e-03 +4.6203729184e+00 4.6203830703e+00 4.9935713700e-03 0.0000e+00 0.0000e+00
       11 -1    0    0    0    0 +7.0802043716e-19 +5.0978957700e-19 -4.8572178972e-16 5.1100000000e-04 5.1099893000e-04 0.0000e+00 1.0000e+00
       50  1    1    2    0    0 +6.5895060073e-03 -1.6569667433e-02 +4.2931411204e+00 4.2931810573e+00 4.9935713700e-03 0.0000e+00 0.0000e+00
       11  1    1    2    0    0 -1.3324469360e-02 +1.1720352443e-02 +3.2723179805e-01 3.2771301305e-01 5.1099893000e-04 0.0000e+00 1.0000e+00
<vert_displacement>
111.62265515399113
</vert_displacement>
</event>
<event>
 4   1200 +8.6263000e+09 1.29527000e-02 7.81665300e-03            nan
       50 -1    0    0    0    0 +5.8618172030e-03 -5.4226679526e-04 +2.2119549657e+00 2.2119684358e+00 4.9935713700e-03 0.0000e+00 0.0000e+00
       11 -1    0    0    0    0 -4.5971080152e-20 +4.2527068732e-21 -1.7347173325e-17 5.1100000000e-04 5.1099893000e-04 0.0000e+00 1.0000e+00
       50  1    1    2    0    0 +1.4797125381e-02 +6.9598050438e-03 +2.0618426246e+00 2.0619135138e+00 4.9935713700e-03 0.0000e+00 0.0000e+00
       11  1    1    2    0    0 -8.9353081781e-03 -7.5020718391e-03 +1.5011234113e-01 1.5056592209e-01 5.1099893000e-04 0.0000e+00 1.0000e+00
<vert_displacement>
297.32696210472102
</vert_displacement>
</event>
<event>
 4   1200 +8.6263000e+09 2.17611100e-02 7.81665300e-03            nan
       50 -1    0    0    0    0 -5.3788396530e-03 +1.9375840719e-03 +2.5808740649e+00 2.5808852281e+00 4.9935713700e-03 0.0000e+00 0.0000e+00
       11 -1    0    0    0    0 -1.8799847150e-19 +6.7721454333e-20 +9.0205399425e-17 5.1100000000e-04 5.1099893000e-04 0.0000e+00 1.0000e+00
       50  1    1    2    0    0 -1.3948020206e-02 -1.7291818986e-02 +2.0178620276e+00 2.0179904986e+00 4.9935713700e-03 0.0000e+00 0.0000e+00
       11  1    1    2    0    0 +8.5691805530e-03 +1.9229403058e-02 +5.6301203732e-01 5.6340572955e-01 5.1099893000e-04 0.0000e+00 1.0000e+00
<vert_displacement>
59.398137484175628
</vert_displacement>
</event>
<event>
 4   1200 +8.6263000e+09 7.32846200e-03 7.81665300e-03            nan
       50 -1    0    0    0    0 -2.7326893220e-02 -1.5948458999e-02 +9.9997654031e+00 9.9998167066e+00 4.9935713700e-03 0.0000e+00 0.0000e+00
       11 -1    0    0    0    0 -2.5409336217e-18 -1.4829338761e-18 +9.2980712871e-16 5.1100000000e-04 5.1099893000e-04 0.0000e+00 1.0000e+00
       50  1    1    2    0    0 -3.0184256188e-02 -2.0393307341e-02 +9.9715177535e+00 9.9715855420e+00 4.9935713700e-03 0.0000e+00 0.0000e+00
       11  1    1    2    0    0 +2.8573629680e-03 +4.4448483417e-03 +2.8247649634e-02 2.8742164666e-02 5.1099893000e-04 0.0000e+00 1.0000e+00
<vert_displacement>
337.39574762633407
</vert_displacement>
</event>
<event>
 4   1200 +8.6263000e+09 5.04209000e-03 7.81665300e-03            nan
       50 -1    0    0    0    0 -2.5245616049e-02 -7.9863146335e-02 +4.2179035356e+01 4.2179118814e+01 4.9935713700e-03 0.0000e+00 0.0000e+00
       11 -1    0    0    0    0 +1.3622366622e-18 +4.3093622944e-18 -2.2759527131e-15 5.1100000000e-04 5.1099893000e-04 0.0000e+00 1.0000e+00
       50  1    1    2    0    0 -2.5779118122e-02 -7.9412814146e-02 +4.2178559443e+01 4.2178642375e+01 4.9935713700e-03 0.0000e+00 0.0000e+00
       11  1    1    2    0    0 +5.3350207311e-04 -4.5033218917e-04 +4.7591260079e-04 9.8743923998e-04 5.1099893000e-04 0.0000e+00 1.0000e+00
<vert_displacement>
469.18326736025489
</vert_displacement>
</event>
<event>
 4   1200 +8.6263000e+09 9.33718800e-03 7.81665300e-03            nan
       50 -1    0    0    0    0 -9.9212655089e-03 -9.2821771061e-03 +4.0728269858e+00 4.0728527081e+00 4.9935713700e-03 0.0000e+00 0.0000e+00
       11 -1    0    0    0    0 +1.7916979906e-18 +1.6762839433e-18 -7.3551866140e-16 5.1100000000e-04 5.1099893000e-04 0.0000e+00 1.0000e+00
       50  1    1    2    0    0 -1.7621238899e-02 -8.3575264010e-03 +4.0109498112e+00 4.0110003341e+00 4.9935713700e-03 0.0000e+00 0.0000e+00
       11  1    1    2    0    0 +7.6999733902e-03 -9.2465070512e-04 +6.1877174524e-02 6.2363373996e-02 5.1099893000e-04 0.0000e+00 1.0000e+00
<vert_displacement>
215.03062978975905
</vert_displacement>
</event>
<event>
 4   1200 +8.6263000e+09 1.05683000e-02 7.81665300e-03            nan
       50 -1    0    0    0    0 -8.0975139866e-02 -4.1569613901e-02 +3.5077599293e+01 3.5077717743e+01 4.9935713700e-03 0.0000e+00 0.0000e+00
       11 -1    0    0    0    0 +1.9221703562e-18 +9.8677050379e-19 -8.3266446515e-16 5.1100000000e-04 5.1099893000e-04 0.0000e+00 1.0000e+00
       50  1    1    2    0    0 -8.5687249226e-02 -4.9384518433e-02 +3.4992485278e+01 3.4992625395e+01 4.9935713700e-03 0.0000e+00 0.0000e+00
       11  1    1    2    0    0 +4.7121093601e-03 +7.8149045315e-03 +8.5114014407e-02 8.5603348509e-02 5.1099893000e-04 0.0000e+00 1.0000e+00
<vert_displacement>
50.597379828210201
</vert_displacement>
</event>
<event>
 4   1200 +8.6263000e+09 7.21547100e-03 7.81665300e-03            nan
       50 -1    0    0    0    0 +4.5019587755e-02 -1.3148145476e-02 +1.6893127098e+01 1.6893192941e+01 4.9935713700e-03 0.0000e+00 0.0000e+00
       11 -1    0    0    0    0 +6.1023059444e-18 -1.7822021546e-18 +2.2898261635e-15 5.1100000000e-04 5.1099893000e-04 0.0000e+00 1.0000e+00
       50  1    1    2    0    0 +4.4479222818e-02 -7.9402770545e-03 +1.6866546470e+01 1.6866607727e+01 4.9935713700e-03 0.0000e+00 0.0000e+00
       11  1    1    2    0    0 +5.4036493657e-04 -5.2078684213e-03 +2.6580628380e-02 2.7096213993e-02 5.1099893000e-04 0.0000e+00 1.0000e+00
<vert_displacement>
146.86618721409994
</vert_displacement>
</event>
<event>
 4   1200 +8.6263000e+09 6.22338800e-03 7.81665300e-03            nan
       50 -1    0    0    0    0 -1.6392042830e-03 -3.8754257797e-03 +2.0072912946e+00 2.0073019163e+00 4.9935713700e-03 0.0000e+00 0.0000e+00
       11 -1    0    0    0    0 +1.4449477809e-19 +3.4161623042e-19 -1.7694140578e-16 5.1100000000e-04 5.1099893000e-04 0.0000e+00 1.0000e+00
       50  1    1    2    0    0 +7.6972750914e-04 -1.0127800643e-03 +1.9937042527e+00 1.9937109121e+00 4.9935713700e-03 0.0000e+00 0.0000e+00
       11  1    1    2    0    0 -2.4089317921e-03 -2.8626457154e-03 +1.3587041931e-02 1.4102004155e-02 5.1099893000e-04 0.0000e+00 1.0000e+00
<vert_displacement>
205.97240881205565
</vert_displacement>
</event>
<event>
 4   1200 +8.6263000e+09 1.44327300e-02 7.81665300e-03            nan
       50 -1    0    0    0    0 -1.2435961057e-03 -1.2807608977e-02 +1.6523753975e+01 1.6523759740e+01 4.9935713700e-03 0.0000e+00 0.0000e+00
       11 -1    0    0    0    0 +3.5511552680e-20 +3.6572813214e-19 -4.7184464239e-16 5.1100000000e-04 5.1099893000e-04 0.0000e+00 1.0000e+00
       50  1    1    2    0    0 +1.0787636938e-02 -6.4263408922e-03 +1.6342338736e+01 1.6342344323e+01 4.9935713700e-03 0.0000e+00 0.0000e+00
       11  1    1    2    0    0 -1.2031233043e-02 -6.3812680844e-03 +1.8141523944e-01 1.8192641747e-01 5.1099893000e-04 0.0000e+00 1.0000e+00
<vert_displacement>
478.84425139452316
</vert_displacement>
</event>
<event>
 4   1200 +8.6263000e+09 5.84644800e-02 7.81665300e-03            nan
       50 -1    0    0    0    0 +2.3053220249e-03 -7.4614189785e-03 +1.3799208352e+01 1.3799211465e+01 4.9935713700e-03 0.0000e+00 0.0000e+00
       11 -1    0    0    0    0 +2.1329733442e-19 -6.9035942133e-19 +1.2767562739e-15 5.1100000000e-04 5.1099893000e-04 0.0000e+00 1.0000e+00
       50  1    1    2    0    0 +1.7707167219e-02 -5.8816369338e-02 +5.6071144086e+00 5.6074530614e+00 4.9935713700e-03 0.0000e+00 0.0000e+00
       11  1    1    2    0    0 -1.5401845194e-02 +5.1354950359e-02 +8.1920939434e+00 8.1922694039e+00 5.1099893000e-04 0.0000e+00 1.0000e+00
<vert_displacement>
210.56715045766811
</vert_displacement>
</event>
<event>
 4   1200 +8.6263000e+09 9.56434700e-03 7.81665300e-03            nan
       50 -1    0    0    0    0 -5.6757470605e-03 +2.2710541124e-03 +2.5869427473e+00 2.5869547900e+00 4.9935713700e-03 0.0000e+00 0.0000e+00
       11 -1    0    0    0    0 -5.0999986037e-19 +2.0406781132e-19 +2.3245229674e-16 5.1100000000e-04 5.1099893000e-04 0.0000e+00 1.0000e+00
       50  1    1    2    0    0 -1.0642716219e-02 +8.5677490836e-03 +2.5200601141e+00 2.5201020987e+00 4.9935713700e-03 0.0000e+00 0.0000e+00
       11  1    1    2    0    0 +4.9669691590e-03 -6.2966949713e-03 +6.6882633234e-02 6.7363691247e-02 5.1099893000e-04 0.0000e+00 1.0000e+00
<vert_displacement>
229.43946707076282
</vert_displacement>
</event>
<event>
 4   1200 +8.6263000e+09 7.41885600e-03 7.81665300e-03            nan
       50 -1    0    0    0    0 -1.0724780145e-02 -1.0887496609e-01 +4.3840794701e+01 4.3840931488e+01 4.9935713700e-03 0.0000e+00 0.0000e+00
       11 -1    0    0    0    0 +0.0000000000e+00 -0.0000000000e+00 +0.0000000000e+00 5.1100000000e-04 5.1099893000e-04 0.0000e+00 1.0000e+00
       50  1    1    2    0    0 -5.2697703267e-03 -1.0945380044e-01 +4.3811318694e+01 4.3811456020e+01 4.9935713700e-03 0.0000e+00 0.0000e+00
       11  1    1    2    0    0 -5.4550098183e-03 +5.7883434539e-04 +2.9476006994e-02 2.9986468440e-02 5.1099893000e-04 0.0000e+00 1.0000e+00
<vert_displacement>
212.34162701115392
</vert_displacement>
</event>
<event>
 4   1200 +8.6263000e+09 1.26086100e-02 7.81665300e-03            nan
       50 -1    0    0    0    0 -5.0943273563e-02 +6.5131631509e-02 +3.4201884775e+01 3.4201985095e+01 4.9935713700e-03 0.0000e+00 0.0000e+00
       11 -1    0    0    0    0 +2.3771337782e-18 -3.0391961581e-18 -1.5959409337e-15 5.1100000000e-04 5.1099893000e-04 0.0000e+00 1.0000e+00
       50  1    1    2    0    0 -6.0915495477e-02 +5.9344983612e-02 +3.4070215397e+01 3.4070321905e+01 4.9935713700e-03 0.0000e+00 0.0000e+00
       11  1    1    2    0    0 +9.9722219145e-03 +5.7866478968e-03 +1.3166937755e-01 1.3217419040e-01 5.1099893000e-04 0.0000e+00 1.0000e+00
<vert_displacement>
339.53798699792975
</vert_displacement>
</event>
<event>
 4   1200 +8.6263000e+09 1.31092500e-02 7.81665300e-03            nan
       50 -1    0    0    0    0 +3.1238956497e-02 -4.8839941049e-03 +2.0411403559e+01 2.0411428659e+01 4.9935713700e-03 0.0000e+00 0.0000e+00
       11 -1    0    0    0    0 -1.9115509592e-19 +2.9885772967e-20 -1.2489994042e-16 5.1100000000e-04 5.1099893000e-04 0.0000e+00 1.0000e+00
       50  1    1    2    0    0 +1.8951296627e-02 -6.0009717644e-03 +2.0266636059e+01 2.0266646424e+01 4.9935713700e-03 0.0000e+00 0.0000e+00
       11  1    1    2    0    0 +1.2287659870e-02 +1.1169776594e-03 +1.4476749963e-01 1.4529323553e-01 5.1099893000e-04 0.0000e+00 1.0000e+00
<vert_displacement>
390.97919285642399
</vert_displacement>
</event>
<event>
 4   1200 +8.6263000e+09 2.29058300e-02 7.81665300e-03            nan
       50 -1    0    0    0    0 -1.3705242449e-03 -1.9405593385e-02 +1.8596976852e+01 1.8596987697e+01 4.9935713700e-03 0.0000e+00 0.0000e+00
       11 -1    0    0    0    0 +2.0557033085e-19 +2.9107214026e-18 -2.7894338232e-15 5.1100000000e-04 5.1099893000e-04 0.0000e+00 1.0000e+00
       50  1    1    2    0    0 -9.2576113066e-03 +2.0221807008e-03 +1.8094400670e+01 1.8094403840e+01 4.9935713700e-03 0.0000e+00 0.0000e+00
       11  1    1    2    0    0 +7.8870870616e-03 -2.1427774086e-02 +5.0257618214e-01 5.0309485748e-01 5.1099893000e-04 0.0000e+00 1.0000e+00
<vert_displacement>
185.74280768800483
</vert_displacement>
</event>
<event>
 4   1200 +8.6263000e+09 2.57515800e-02 7.81665300e-03            nan
       50 -1    0    0    0    0 +2.7823354122e-02 -5.0116513560e-02 +2.2928206137e+01 2.2928278334e+01 4.9935713700e-03 0.0000e+00 0.0000e+00
       11 -1    0    0    0    0 -7.9150953169e-19 +1.4256979228e-18 -6.5225398858e-16 5.1100000000e-04 5.1099893000e-04 0.0000e+00 1.0000e+00
       50  1    1    2    0    0 +4.2429230385e-02 -6.8749307544e-02 +2.2285638563e+01 2.2285785555e+01 4.9935713700e-03 0.0000e+00 0.0000e+00
       11  1    1    2    0    0 -1.4605876263e-02 +1.8632793984e-02 +6.4256757405e-01 6.4300377991e-01 5.1099893000e-04 0.0000e+00 1.0000e+00
<vert_displacement>
81.686193221855504
</vert_displacement>
</event>
<event>
 4   1200 +8.6263000e+09 9.81215900e-03 7.81665300e-03            nan
       50 -1    0    0    0    0 -7.3062473184e-03 +4.0610100032e-03 +5.8167104101e+00 5.8167185597e+00 4.9935713700e-03 0.0000e+00 0.0000e+00
       11 -1    0    0    0    0 +1.7431578695e-19 -9.6889432245e-20 -1.3877773478e-16 5.1100000000e-04 5.1099893000e-04 0.0000e+00 1.0000e+00
       50  1    1    2    0    0 -3.1067980990e-05 -4.2659218301e-04 +5.7460471888e+00 5.7460493746e+00 4.9935713700e-03 0.0000e+00 0.0000e+00
       11  1    1    2    0    0 -7.2751793374e-03 +4.4876021863e-03 +7.0663221228e-02 7.1180185178e-02 5.1099893000e-04 0.0000e+00 1.0000e+00
<vert_displacement>
70.553621486386504
</vert_displacement>
</event>
<event>
 4   1200 +8.6263000e+09 7.04917200e-03 7.81665300e-03            nan
       50 -1    0    0    0    0 +4.0125523863e-02 +2.5166501515e-02 +4.8255233937e+01 4.8255257441e+01 4.9935713700e-03 0.0000e+00 0.0000e+00
       11 -1    0    0    0    0 -2.3079495929e-19 -1.4475329251e-19 -2.7755562245e-16 5.1100000000e-04 5.1099893000e-04 0.0000e+00 1.0000e+00
       50  1    1    2    0    0 +3.5159928763e-02 +2.4608292040e-02 +4.8231003724e+01 4.8231023076e+01 4.9935713700e-03 0.0000e+00 0.0000e+00
       11  1    1    2    0    0 +4.9655951008e-03 +5.5820947535e-04 +2.4230212640e-02 2.4745364354e-02 5.1099893000e-04 0.0000e+00 1.0000e+00
<vert_displacement>
487.12601881429862
</vert_displacement>
</event>
<event>
 4   1200 +8.6263000e+09 9.27259300e-03 7.81665300e-03            nan
       50 -1    0    0    0    0 +3.6611416956e-03 -3.2159608681e-03 +1.4143059105e+00 1.4143231210e+00 4.9935713700e-03 0.0000e+00 0.0000e+00
       11 -1    0    0    0    0 +8.9811273538e-21 -7.8890566175e-21 +3.4694263581e-18 5.1100000000e-04 5.1099893000e-04 0.0000e+00 1.0000e+00
       50  1    1    2    0    0 +9.0792160527e-03 +2.3951659999e-03 +1.3517359573e+00 1.3517777935e+00 4.9935713700e-03 0.0000e+00 0.0000e+00
       11  1    1    2    0    0 -5.4180743571e-03 -5.6111268680e-03 +6.2569953207e-02 6.3056327507e-02 5.1099893000e-04 0.0000e+00 1.0000e+00
<vert_displacement>
294.21545860854269
</vert_displacement>
</event>
<event>
 4   1200 +8.6263000e+09 8.71673500e-03 7.81665300e-03            nan
       50 -1    0    0    0    0 -1.5868720598e-02 -7.9093405706e-02 +4.5361989962e+01 4.5362061966e+01 4.9935713700e-03 0.0000e+00 0.0000e+00
       11 -1    0    0    0    0 +2.2089239710e-18 +1.1009792424e-17 -6.3143834678e-15 5.1100000000e-04 5.1099893000e-04 0.0000e+00 1.0000e+00
       50  1    1    2    0    0 -2.2391437561e-02 -8.1882213358e-02 +4.5311980142e+01 4.5312059933e+01 4.9935713700e-03 0.0000e+00 0.0000e+00
       11  1    1    2    0    0 +6.5227169629e-03 +2.7888076522e-03 +5.0009820518e-02 5.0513033495e-02 5.1099893000e-04 0.0000e+00 1.0000e+00
<vert_displacement>
290.90188249340991
</vert_displacement>
</event>
<event>
 4   1200 +8.6263000e+09 2.34404600e-02 7.81665300e-03            nan
       50 -1    0    0    0    0 -1.2914061945e-02 -3.9394235570e-03 +6.8625260837e+00 6.8625411822e+00 4.9935713700e-03 0.0000e+00 0.0000e+00
       11 -1    0    0    0    0 +1.0446197938e-19 +3.1866037511e-20 -5.5511043796e-17 5.1100000000e-04 5.1099893000e-04 0.0000e+00 1.0000e+00
       50  1    1    2    0    0 +9.6819806154e-03 +4.1509541100e-03 +6.3036183428e+00 6.3036291229e+00 4.9935713700e-03 0.0000e+00 0.0000e+00
       11  1    1    2    0    0 -2.2596042561e-02 -8.0903776669e-03 +5.5890774086e-01 5.5942305929e-01 5.1099893000e-04 0.0000e+00 1.0000e+00
<vert_displacement>
225.86584591666258
</vert_displacement>
</event>
<event>
 4   1200 +8.6263000e+09 1.25069900e-02 7.81665300e-03            nan
       50 -1    0    0    0    0 +3.6514173346e-03 +7.9188331659e-03 +3.3006413028e+00 3.3006565992e+00 4.9935713700e-03 0.0000e+00 0.0000e+00
       11 -1    0    0    0    0 -1.8806932200e-19 -4.0786616484e-19 -1.7000230735e-16 5.1100000000e-04 5.1099893000e-04 0.0000e+00 1.0000e+00
       50  1    1    2    0    0 +1.3814451049e-02 +1.2613130376e-02 +3.1664455573e+00 3.1665047502e+00 4.9935713700e-03 0.0000e+00 0.0000e+00
       11  1    1    2    0    0 -1.0163033714e-02 -4.6942972097e-03 +1.3419574547e-01 1.3466284901e-01 5.1099893000e-04 0.0000e+00 1.0000e+00
<vert_displacement>
301.55793766060361
</vert_displacement>
</event>
<event>
 4   1200 +8.6263000e+09 4.46361400e-02 7.81665300e-03            nan
       50 -1    0    0    0    0 +4.0034216981e-02 +6.4374641154e-02 +2.5356585578e+01 2.5356699389e+01 4.9935713700e-03 0.0000e+00 0.0000e+00
       11 -1    0    0    0    0 +1.3584715808e-18 +2.1844094159e-18 +8.6041899882e-16 5.1100000000e-04 5.1099893000e-04 0.0000e+00 1.0000e+00
       50  1    1    2    0    0 -6.6374277522e-03 +6.8403488074e-02 +2.3257574575e+01 2.3257676650e+01 4.9935713700e-03 0.0000e+00 0.0000e+00
       11  1    1    2    0    0 +4.6671644733e-02 -4.0288469208e-03 +2.0990110024e+00 2.0995337395e+00 5.1099893000e-04 0.0000e+00 1.0000e+00
<vert_displacement>
1.7724125693440560
</vert_displacement>
</event>
<event>
 4   1200 +8.6263000e+09 1.49880400e-02 7.81665300e-03            nan
       50 -1    0    0    0    0 +6.0901540431e-02 +2.9582326295e-03 +2.2253586938e+01 2.2253671029e+01 4.9935713700e-03 0.0000e+00 0.0000e+00
       11 -1    0    0    0    0 +1.9369439068e-18 +9.4085151641e-20 +7.0776452153e-16 5.1100000000e-04 5.1099893000e-04 0.0000e+00 1.0000e+00
       50  1    1    2    0    0 +7.4484891548e-02 +3.4294406381e-03 +2.2056389019e+01 2.2056515619e+01 4.9935713700e-03 0.0000e+00 0.0000e+00
       11  1    1    2    0    0 -1.3583351117e-02 -4.7120800859e-04 +1.9719791915e-01 1.9766641066e-01 5.1099893000e-04 0.0000e+00 1.0000e+00
<vert_displacement>
316.19557216064783
</vert_displacement>
</event>
<event>
 4   1200 +8.6263000e+09 1.75799400e-02 7.81665300e-03            nan
       50 -1    0    0    0    0 +2.7334295600e-02 -6.7568373180e-02 +3.1075086351e+01 3.1075172233e+01 4.9935713700e-03 0.0000e+00 0.0000e+00
       11 -1    0    0    0    0 -1.0620228070e-18 +2.6252424573e-18 -1.2073642181e-15 5.1100000000e-04 5.1099893000e-04 0.0000e+00 1.0000e+00
       50  1    1    2    0    0 +3.7457495478e-02 -8.0246752243e-02 +3.0794507287e+01 3.0794635029e+01 4.9935713700e-03 0.0000e+00 0.0000e+00
       11  1    1    2    0    0 -1.0123199878e-02 +1.2678379062e-02 +2.8057906423e-01 2.8104820383e-01 5.1099893000e-04 0.0000e+00 1.0000e+00
<vert_displacement>
111.47610960339651
</vert_displacement>
</event>
<event>
 4   1200 +8.6263000e+09 2.24873000e-02 7.81665300e-03            nan
       50 -1    0    0    0    0 +1.3048553152e-01 -9.6012325939e-02 +4.1140651085e+01 4.1140970351e+01 4.9935713700e-03 0.0000e+00 0.0000e+00
       11 -1    0    0    0    0 -1.7518267204e-17 +1.2890084909e-17 -5.5233167252e-15 5.1100000000e-04 5.1099893000e-04 0.0000e+00 1.0000e+00
       50  1    1    2    0    0 +1.3741292917e-01 -1.1513920653e-01 +4.0664672239e+01 4.0665067719e+01 4.9935713700e-03 0.0000e+00 0.0000e+00
       11  1    1    2    0    0 -6.9273976448e-03 +1.9126880588e-02 +4.7597884586e-01 4.7641363249e-01 5.1099893000e-04 0.0000e+00 1.0000e+00
<vert_displacement>
284.65163859331363
</vert_displacement>
</event>
<event>
 4   1200 +8.6263000e+09 1.10430800e-02 7.81665300e-03            nan
       50 -1    0    0    0    0 +6.4472447097e-03 +7.0350192466e-03 +6.0118788875e+00 6.0118885346e+00 4.9935713700e-03 0.0000e+00 0.0000e+00
       11 -1    0    0    0    0 -1.7115179870e-19 -1.8675515699e-19 -1.5959435875e-16 5.1100000000e-04 5.1099893000e-04 0.0000e+00 1.0000e+00
       50  1    1    2    0    0 +8.9522312325e-03 -2.5757663562e-03 +5.9153989677e+00 5.9154084102e+00 4.9935713700e-03 0.0000e+00 0.0000e+00
       11  1    1    2    0    0 -2.5049865228e-03 +9.6107856028e-03 +9.6479919818e-02 9.6991124364e-02 5.1099893000e-04 0.0000e+00 1.0000e+00
<vert_displacement>
79.623829293133781
</vert_displacement>
</event>
<event>
 4   1200 +8.6263000e+09 5.33386600e-03 7.81665300e-03            nan
       50 -1    0    0    0    0 -2.4085922807e-02 +1.9204833113e-02 +1.1164200671e+01 1.1164244288e+01 4.9935713700e-03 0.0000e+00 0.0000e+00
       11 -1    0    0    0    0 -1.9461109767e-19 +1.5517253305e-19 +9.0205277357e-17 5.1100000000e-04 5.1099893000e-04 0.0000e+00 1.0000e+00
       50  1    1    2    0    0 -2.5561804643e-02 +1.8052537671e-02 +1.1160759516e+01 1.1160804506e+01 4.9935713700e-03 0.0000e+00 0.0000e+00
       11  1    1    2    0    0 +1.4758818367e-03 +1.1522954417e-03 +3.4411545536e-03 3.9507817642e-03 5.1099893000e-04 0.0000e+00 1.0000e+00
<vert_displacement>
453.25630594933017
</vert_displacement>
</event>
<event>
 4   1200 +8.6263000e+09 7.33464400e-03 7.81665300e-03            nan
       50 -1    0    0    0    0 +5.0245164202e-02 +6.1149187879e-02 +3.1783972869e+01 3.1784071798e+01 4.9935713700e-03 0.0000e+00 0.0000e+00
       11 -1    0    0    0    0 +1.2285504970e-18 +1.4951660792e-18 +7.7715370790e-16 5.1100000000e-04 5.1099893000e-04 0.0000e+00 1.0000e+00
       50  1    1    2    0    0 +5.1514443918e-02 +6.6303895874e-02 +3.1755695286e+01 3.1755806681e+01 4.9935713700e-03 0.0000e+00 0.0000e+00
       11  1    1    2    0    0 -1.2692797165e-03 -5.1547079948e-03 +2.8277582926e-02 2.8776116860e-02 5.1099893000e-04 0.0000e+00 1.0000e+00
<vert_displacement>
204.14341199693592
</vert_displacement>
</event>
<event>
 4   1200 +8.6263000e+09 9.69102400e-03 7.81665300e-03            nan
       50 -1    0    0    0    0 +3.9247056515e-02 -1.8690559036e-02 +1.4931485240e+01 1.4931549353e+01 4.9935713700e-03 0.0000e+00 0.0000e+00
       11 -1    0    0    0    0 +1.6961936641e-18 -8.0777542648e-19 +6.4531439830e-16 5.1100000000e-04 5.1099893000e-04 0.0000e+00 1.0000e+00
       50  1    1    2    0    0 +3.4936580080e-02 -2.5810173343e-02 +1.4863681360e+01 1.4863745666e+01 4.9935713700e-03 0.0000e+00 0.0000e+00
       11  1    1    2    0    0 +4.3104764353e-03 +7.1196143073e-03 +6.7803880873e-02 6.8314687267e-02 5.1099893000e-04 0.0000e+00 1.0000e+00
<vert_displacement>
48.995896195483361
</vert_displacement>
</event>
<event>
 4   1200 +8.6263000e+09 6.65928900e-03 7.81665300e-03            nan
       50 -1    0    0    0    0 +4.9995008377e-02 +4.9977782397e-02 +2.1026349285e+01 2.1026468712e+01 4.9935713700e-03 0.0000e+00 0.0000e+00
       11 -1    0    0    0    0 +1.9798478198e-18 +1.9791656553e-18 +8.3266256256e-16 5.1100000000e-04 5.1099893000e-04 0.0000e+00 1.0000e+00
       50  1    1    2    0    0 +5.0190879186e-02 +5.4331704124e-02 +2.1007328151e+01 2.1007458962e+01 4.9935713700e-03 0.0000e+00 0.0000e+00
       11  1    1    2    0    0 -1.9587080831e-04 -4.3539217269e-03 +1.9021134427e-02 1.9520749846e-02 5.1099893000e-04 0.0000e+00 1.0000e+00
<vert_displacement>
324.18204774781327
</vert_displacement>
</event>
<event>
 4   1200 +8.6263000e+09 1.35348700e-02 7.81665300e-03            nan
       50 -1    0    0    0    0 +1.7491186111e-02 +9.2311670659e-03 +2.5003753322e+01 2.5003761643e+01 4.9935713700e-03 0.0000e+00 0.0000e+00
       11 -1    0    0    0    0 +1.4076742436e-18 +7.4291566248e-19 +2.0122786026e-15 5.1100000000e-04 5.1099893000e-04 0.0000e+00 1.0000e+00
       50  1    1    2    0    0 +1.2409174139e-02 -2.3817095527e-03 +2.4847935705e+01 2.4847939420e+01 4.9935713700e-03 0.0000e+00 0.0000e+00
       11  1    1    2    0    0 +5.0820119715e-03 +1.1612876619e-02 +1.5581761687e-01 1.5633322294e-01 5.1099893000e-04 0.0000e+00 1.0000e+00
<vert_displacement>
149.97749251998746
</vert_displacement>
</event>
<event>
 4   1200 +8.6263000e+09 1.15179500e-02 7.81665300e-03            nan
       50 -1    0    0    0    0 +1.5265460601e-03 +5.0266040712e-02 +2.5763588277e+01 2.5763637842e+01 4.9935713700e-03 0.0000e+00 0.0000e+00
       11 -1    0    0    0    0 -1.5376751098e-19 -5.0632497564e-18 -2.5951413762e-15 5.1100000000e-04 5.1099893000e-04 0.0000e+00 1.0000e+00
       50  1    1    2    0    0 -3.2000569533e-03 +5.9303209528e-02 +2.5657724917e+01 2.5657794136e+01 4.9935713700e-03 0.0000e+00 0.0000e+00
       11  1    1    2    0    0 +4.7266030134e-03 -9.0371688163e-03 +1.0586336011e-01 1.0635470525e-01 5.1099893000e-04 0.0000e+00 1.0000e+00
<vert_displacement>
126.53067970851656
</vert_displacement>
</event>
<event>
 4   1200 +8.6263000e+09 1.36785000e-02 7.81665300e-03            nan
       50 -1    0    0    0    0 +1.0605862998e-02 +6.8032763868e-03 +3.1276371522e+00 3.1276665200e+00 4.9935713700e-03 0.0000e+00 0.0000e+00
       11 -1    0    0    0    0 +2.8235638842e-19 +1.8112138073e-19 +8.3266051124e-17 5.1100000000e-04 5.1099893000e-04 0.0000e+00 1.0000e+00
       50  1    1    2    0    0 +6.5982578024e-03 -5.8229573768e-03 +2.9599071881e+00 2.9599244825e+00 4.9935713700e-03 0.0000e+00 0.0000e+00
       11  1    1    2    0    0 +4.0076051951e-03 +1.2626233764e-02 +1.6772996404e-01 1.6825303752e-01 5.1099893000e-04 0.0000e+00 1.0000e+00
<vert_displacement>
424.83012918108250
</vert_displacement>
</event>
<event>
 4   1200 +8.6263000e+09 2.29877000e-02 7.81665300e-03            nan
       50 -1    0    0    0    0 +2.1402796922e-02 -9.7946238550e-03 +1.3708719789e+01 1.3708740905e+01 4.9935713700e-03 0.0000e+00 0.0000e+00
       11 -1    0    0    0    0 -6.3916833283e-19 +2.9250445271e-19 -4.0939413688e-16 5.1100000000e-04 5.1099893000e-04 0.0000e+00 1.0000e+00
       50  1    1    2    0    0 -1.7812920088e-03 -1.0981025496e-02 +1.3196933147e+01 1.3196938781e+01 4.9935713700e-03 0.0000e+00 0.0000e+00
       11  1    1    2    0    0 +2.3184088930e-02 +1.1864016406e-03 +5.1178664171e-01 5.1231312426e-01 5.1099893000e-04 0.0000e+00 1.0000e+00
<vert_displacement>
308.94345879745447
</vert_displacement>
</event>
<event>
 4   1200 +8.6263000e+09 2.10776800e-02 7.81665300e-03            nan
       50 -1    0    0    0    0 +1.4629201992e-02 -3.0639521602e-02 +2.2530969263e+01 2.2530995399e+01 4.9935713700e-03 0.0000e+00 0.0000e+00
       11 -1    0    0    0    0 -4.6855853664e-19 +9.8135287306e-19 -7.2164414663e-16 5.1100000000e-04 5.1099893000e-04 0.0000e+00 1.0000e+00
       50  1    1    2    0    0 +1.0033012673e-02 -1.0055269491e-02 +2.2112918161e+01 2.2112923287e+01 4.9935713700e-03 0.0000e+00 0.0000e+00
       11  1    1    2    0    0 +4.5961893190e-03 -2.0584252111e-02 +4.1805110260e-01 4.1858311229e-01 5.1099893000e-04 0.0000e+00 1.0000e+00
<vert_displacement>
462.00464969315510
</vert_displacement>
</event>
<event>
 4   1200 +8.6263000e+09 1.22110100e-02 7.81665300e-03            nan
       50 -1    0    0    0    0 -5.8998155089e-03 -5.1478389009e-02 +2.0483393310e+01 2.0483459455e+01 4.9935713700e-03 0.0000e+00 0.0000e+00
       11 -1    0    0    0    0 -8.1542786420e-19 -7.1149534657e-18 +2.8310596548e-15 5.1100000000e-04 5.1099893000e-04 0.0000e+00 1.0000e+00
       50  1    1    2    0    0 -1.6113399048e-02 -5.5545575924e-02 +2.0361146349e+01 2.0361229102e+01 4.9935713700e-03 0.0000e+00 0.0000e+00
       11  1    1    2    0    0 +1.0213583539e-02 +4.0671869148e-03 +1.2224696040e-01 1.2274135304e-01 5.1099893000e-04 0.0000e+00 1.0000e+00
<vert_displacement>
455.38636711255810
</vert_displacement>
</event>
<event>
 4   1200 +8.6263000e+09 4.55187700e-02 7.81665300e-03            nan
       50 -1    0    0    0    0 +7.2716323431e-02 -4.3715749645e-02 +2.1874656802e+01 2.1874821916e+01 4.9935713700e-03 0.0000e+00 0.0000e+00
       11 -1    0    0    0    0 +2.8602192826e-18 -1.7195125412e-18 +8.6041637191e-16 5.1100000000e-04 5.1099893000e-04 0.0000e+00 1.0000e+00
       50  1    1    2    0    0 +5.9846422517e-02 -8.4171708474e-02 +1.9643861359e+01 1.9644133488e+01 4.9935713700e-03 0.0000e+00 0.0000e+00
       11  1    1    2    0    0 +1.2869900914e-02 +4.0455958829e-02 +2.2307954427e+00 2.2311994279e+00 5.1099893000e-04 0.0000e+00 1.0000e+00
<vert_displacement>
208.58166056565682
</vert_displacement>
</event>
<event>
 4   1200 +8.6263000e+09 2.86012900e-02 7.81665300e-03            nan
       50 -1    0    0    0    0 -7.0972549033e-03 +2.1161513163e-03 +6.6756244402e+00 6.6756304160e+00 4.9935713700e-03 0.0000e+00 0.0000e+00
       11 -1    0    0    0    0 +3.6885739243e-20 -1.0998027648e-20 -3.4694448169e-17 5.1100000000e-04 5.1099893000e-04 0.0000e+00 1.0000e+00
       50  1    1    2    0    0 -8.3302095117e-04 +2.9488548392e-02 +5.7785528601e+00 5.7786303188e+00 4.9935713700e-03 0.0000e+00 0.0000e+00
       11  1    1    2    0    0 -6.2642339521e-03 -2.7372397075e-02 +8.9707158006e-01 8.9751109721e-01 5.1099893000e-04 0.0000e+00 1.0000e+00
<vert_displacement>
34.607785631020334
</vert_displacement>
</event>
<event>
 4   1200 +8.6263000e+09 1.05860100e-02 7.81665300e-03            nan
       50 -1    0    0    0    0 -1.7857122981e-02 -6.3969998403e-03 +1.9444241288e+01 1.9444251181e+01 4.9935713700e-03 0.0000e+00 0.0000e+00
       11 -1    0    0    0    0 -7.1372112450e-19 -2.5567802408e-19 +7.7715574745e-16 5.1100000000e-04 5.1099893000e-04 0.0000e+00 1.0000e+00
       50  1    1    2    0    0 -1.3808717449e-02 +2.0791789361e-03 +1.9358615598e+01 1.9358621279e+01 4.9935713700e-03 0.0000e+00 0.0000e+00
       11  1    1    2    0    0 -4.0484055317e-03 -8.4761787763e-03 +8.5625689911e-02 8.6140902518e-02 5.1099893000e-04 0.0000e+00 1.0000e+00
<vert_displacement>
465.55541256280065
</vert_displacement>
</event>
<event>
 4   1200 +8.6263000e+09 1.17965900e-02 7.81665300e-03            nan
       50 -1    0    0    0    0 +1.5652985869e-02 +1.4568194686e-02 +8.4616407459e+00 8.4616692382e+00 4.9935713700e-03 0.0000e+00 0.0000e+00
       11 -1    0    0    0    0 +1.9254078141e-19 +1.7919722230e-19 +1.0408307621e-16 5.1100000000e-04 5.1099893000e-04 0.0000e+00 1.0000e+00
       50  1    1    2    0    0 +1.7428320048e-02 +2.4874732528e-02 +8.3483264601e+00 8.3483832039e+00 4.9935713700e-03 0.0000e+00 0.0000e+00
       11  1    1    2    0    0 -1.7753341788e-03 -1.0306537843e-02 +1.1331428579e-01 1.1379703431e-01 5.1099893000e-04 0.0000e+00 1.0000e+00
<vert_displacement>
254.19280632693258
</vert_displacement>
</event>
<event>
 4   1200 +8.6263000e+09 8.11998800e-03 7.81665300e-03            nan
       50 -1    0    0    0    0 +1.1737856279e-02 -1.7836696499e-02 +7.5479662734e+00 7.5479981270e+00 4.9935713700e-03 0.0000e+00 0.0000e+00
       11 -1    0    0    0    0 -1.3488304420e-18 +2.0496655141e-18 -8.6735826742e-16 5.1100000000e-04 5.1099893000e-04 0.0000e+00 1.0000e+00
       50  1    1    2    0    0 +1.4587594626e-02 -2.3443633528e-02 +7.5076135794e+00 7.5076660151e+00 4.9935713700e-03 0.0000e+00 0.0000e+00
       11  1    1    2    0    0 -2.8497383475e-03 +5.6069370289e-03 +4.0352694079e-02 4.0843111914e-02 5.1099893000e-04 0.0000e+00 1.0000e+00
<vert_displacement>
364.59925626413099
</vert_displacement>
</event>
<event>
 4   1200 +8.6263000e+09 1.72822900e-02 7.81665300e-03            nan
       50 -1    0    0    0    0 -3.2015531684e-04 -3.1102075846e-03 +4.9046482151e+00 4.9046517537e+00 4.9935713700e-03 0.0000e+00 0.0000e+00
       11 -1    0    0    0    0 +3.0347143412e-20 +2.9481289439e-19 -4.6490579710e-16 5.1100000000e-04 5.1099893000e-04 0.0000e+00 1.0000e+00
       50  1    1    2    0    0 +1.5905614002e-02 +3.9708126292e-04 +4.6201955469e+00 4.6202256410e+00 4.9935713700e-03 0.0000e+00 0.0000e+00
       11  1    1    2    0    0 -1.6225769319e-02 -3.5072888475e-03 +2.8445266817e-01 2.8493711274e-01 5.1099893000e-04 0.0000e+00 1.0000e+00
<vert_displacement>
12.405020842793268
</vert_displacement>
</event>
<event>
 4   1200 +8.6263000e+09 8.46159400e-03 7.81665300e-03            nan
       50 -1    0    0    0    0 -6.3240927069e-03 -1.7250370051e-03 +3.0832436490e+00 3.0832546611e+00 4.9935713700e-03 0.0000e+00 0.0000e+00
       11 -1    0    0    0    0 +1.0105039059e-18 +2.7563742535e-19 -4.9266035374e-16 5.1100000000e-04 5.1099893000e-04 0.0000e+00 1.0000e+00
       50  1    1    2    0    0 -4.0642904449e-03 -8.1780531943e-03 +3.0368758187e+00 3.0368936552e+00 4.9935713700e-03 0.0000e+00 0.0000e+00
       11  1    1    2    0    0 -2.2598022620e-03 +6.4530161892e-03 +4.6367830373e-02 4.6872005906e-02 5.1099893000e-04 0.0000e+00 1.0000e+00
<vert_displacement>
76.250703109425601
</vert_displacement>
</event>
<event>
 4   1200 +8.6263000e+09 1.37931700e-02 7.81665300e-03            nan
       50 -1    0    0    0    0 -5.2012480884e-02 +4.5818085852e-02 +1.8176206979e+01 1.8176339831e+01 4.9935713700e-03 0.0000e+00 0.0000e+00
       11 -1    0    0    0    0 -2.5415658624e-18 +2.2388796094e-18 +8.8817196144e-16 5.1100000000e-04 5.1099893000e-04 0.0000e+00 1.0000e+00
       50  1    1    2    0    0 -5.8731922475e-02 +3.4745034594e-02 +1.8012985017e+01 1.8013114967e+01 4.9935713700e-03 0.0000e+00 0.0000e+00
       11  1    1    2    0    0 +6.7194415914e-03 +1.1073051258e-02 +1.6322196113e-01 1.6373586374e-01 5.1099893000e-04 0.0000e+00 1.0000e+00
<vert_displacement>
369.66822129431915
</vert_displacement>
</event>
<event>
 4   1200 +8.6263000e+09 2.50894600e-02 7.81665300e-03            nan
       50 -1    0    0    0    0 -9.3282843939e-03 -7.0653146589e-04 +4.2284028278e+00 4.2284161249e+00 4.9935713700e-03 0.0000e+00 0.0000e+00
       11 -1    0    0    0    0 -3.9800447553e-19 -3.0145166426e-20 +1.8041079996e-16 5.1100000000e-04 5.1099893000e-04 0.0000e+00 1.0000e+00
       50  1    1    2    0    0 -2.3280683921e-02 -1.9654702764e-02 +3.5160982474e+00 3.5162337975e+00 4.9935713700e-03 0.0000e+00 0.0000e+00
       11  1    1    2    0    0 +1.3952399527e-02 +1.8948171298e-02 +7.1230458040e-01 7.1269332747e-01 5.1099893000e-04 0.0000e+00 1.0000e+00
<vert_displacement>
147.66899128863085
</vert_displacement>
</event>
<event>
 4   1200 +8.6263000e+09 1.01372500e-02 7.81665300e-03            nan
       50 -1    0    0    0    0 +9.6181733157e-03 +8.8988599736e-03 +5.4132926056e+00 5.4133107678e+00 4.9935713700e-03 0.0000e+00 0.0000e+00
       11 -1    0    0    0    0 -1.0479462223e-18 -9.6957357561e-19 -5.8980425392e-16 5.1100000000e-04 5.1099893000e-04 0.0000e+00 1.0000e+00
       50  1    1    2    0    0 +1.4647188682e-02 +1.6207988346e-03 +5.3360276544e+00 5.3360503400e+00 4.9935713700e-03 0.0000e+00 0.0000e+00
       11  1    1    2    0    0 -5.0290153662e-03 +7.2780611390e-03 +7.7264951214e-02 7.7771427758e-02 5.1099893000e-04 0.0000e+00 1.0000e+00
<vert_displacement>
236.63709348190309
</vert_displacement>
</event>
<event>
 4   1200 +8.6263000e+09 3.22009400e-02 7.81665300e-03            nan
       50 -1    0    0    0    0 +1.6870181245e-02 -3.8484104462e-03 +5.5470745796e+00 5.5471038156e+00 4.9935713700e-03 0.0000e+00 0.0000e+00
       11 -1    0    0    0    0 -1.1184581727e-18 +2.5514166403e-19 -3.6775958764e-16 5.1100000000e-04 5.1099893000e-04 0.0000e+00 1.0000e+00
       50  1    1    2    0    0 -1.7753479087e-02 -1.1317529569e-02 +4.2542141822e+00 4.2542692106e+00 4.9935713700e-03 0.0000e+00 0.0000e+00
       11  1    1    2    0    0 +3.4623660332e-02 +7.4691191233e-03 +1.2928603974e+00 1.2933456050e+00 5.1099893000e-04 0.0000e+00 1.0000e+00
<vert_displacement>
88.086594055725669
</vert_displacement>
</event>
<event>
 4   1200 +8.6263000e+09 1.81881400e-02 7.81665300e-03            nan
       50 -1    0    0    0    0 +1.2389458352e-02 -5.6576094377e-03 +4.0599435793e+00 4.0599694962e+00 4.9935713700e-03 0.0000e+00 0.0000e+00
       11 -1    0    0    0    0 -1.3340148823e-18 +6.0917394237e-19 -4.3714785604e-16 5.1100000000e-04 5.1099893000e-04 0.0000e+00 1.0000e+00
       50  1    1    2    0    0 +2.8707326562e-02 -7.6904741462e-03 +3.7342964963e+00 3.7344180955e+00 4.9935713700e-03 0.0000e+00 0.0000e+00
       11  1    1    2    0    0 -1.6317868210e-02 +2.0328647085e-03 +3.2564708301e-01 3.2606240071e-01 5.1099893000e-04 0.0000e+00 1.0000e+00
<vert_displacement>
460.18233565809237
</vert_displacement>
</event>
<event>
 4   1200 +8.6263000e+09 1.34770000e-02 7.81665300e-03            nan
       50 -1    0    0    0    0 -1.0902411677e-02 +5.4054964091e-03 +5.5997455814e+00 5.5997610301e+00 4.9935713700e-03 0.0000e+00 0.0000e+00
       11 -1    0    0    0    0 -9.0514531049e-19 +4.4877774482e-19 +4.6490479382e-16 5.1100000000e-04 5.1099893000e-04 0.0000e+00 1.0000e+00
       50  1    1    2    0    0 -5.7319264052e-03 -6.2812156850e-03 +5.4419658408e+00 5.4419747755e+00 4.9935713700e-03 0.0000e+00 0.0000e+00
       11  1    1    2    0    0 -5.1704852721e-03 +1.1686712094e-02 +1.5777974066e-01 1.5829725468e-01 5.1099893000e-04 0.0000e+00 1.0000e+00
<vert_displacement>
354.31921697685289
</vert_displacement>
</event>
<event>
 4   1200 +8.6263000e+09 2.42494300e-02 7.81665300e-03            nan
       50 -1    0    0    0    0 +1.5230812358e-02 -8.2323058489e-03 +4.8188009637e+00 4.8188346529e+00 4.9935713700e-03 0.0000e+00 0.0000e+00
       11 -1    0    0    0    0 +5.7022318463e-19 -3.0820756947e-19 +1.8041007708e-16 5.1100000000e-04 5.1099893000e-04 0.0000e+00 1.0000e+00
       50  1    1    2    0    0 +3.0715850188e-02 +8.8873291382e-03 +4.1835970449e+00 4.1837222205e+00 4.9935713700e-03 0.0000e+00 0.0000e+00
       11  1    1    2    0    0 -1.5485037830e-02 -1.7119634987e-02 +6.3520391878e-01 6.3562343243e-01 5.1099893000e-04 0.0000e+00 1.0000e+00
<vert_displacement>
355.93724503212621
</vert_displacement>
</event>
<event>
 4   1200 +8.6263000e+09 7.85055600e-03 7.81665300e-03            nan
       50 -1    0    0    0    0 +3.2743478327e-02 -1.4691864745e-02 +1.0077801669e+01 1.0077866808e+01 4.9935713700e-03 0.0000e+00 0.0000e+00
       11 -1    0    0    0    0 -2.9308247537e-19 +1.3150490746e-19 -9.0205048773e-17 5.1100000000e-04 5.1099893000e-04 0.0000e+00 1.0000e+00
       50  1    1    2    0    0 +3.2997617347e-02 -8.5930410960e-03 +1.0041772968e+01 1.0041832102e+01 4.9935713700e-03 0.0000e+00 0.0000e+00
       11  1    1    2    0    0 -2.5413901985e-04 -6.0988236495e-03 +3.6028700828e-02 3.6545706175e-02 5.1099893000e-04 0.0000e+00 1.0000e+00
<vert_displacement>
56.815157477355363
</vert_displacement>
</event>
<event>
 4   1200 +8.6263000e+09 1.74690300e-02 7.81665300e-03            nan
       50 -1    0    0    0    0 +1.0509847069e-02 +2.3291190312e-02 +1.0589400058e+01 1.0589432066e+01 4.9935713700e-03 0.0000e+00 0.0000e+00
       11 -1    0    0    0    0 -6.8867453338e-19 -1.5261924855e-18 -6.9388737023e-16 5.1100000000e-04 5.1099893000e-04 0.0000e+00 1.0000e+00
       50  1    1    2    0    0 +2.6656571529e-02 +2.5897439397e-02 +1.0307653116e+01 1.0307721327e+01 4.9935713700e-03 0.0000e+00 0.0000e+00
       11  1    1    2    0    0 -1.6146724460e-02 -2.6062490850e-03 +2.8174694201e-01 2.8222173853e-01 5.1099893000e-04 0.0000e+00 1.0000e+00
<vert_displacement>
327.79797978089925
</vert_displacement>
</event>
<event>
 4   1200 +8.6263000e+09 6.26739700e-03 7.81665300e-03            nan
       50 -1    0    0    0    0 +2.9932774589e-03 -6.5553027891e-02 +4.2207728446e+01 4.2207779752e+01 4.9935713700e-03 0.0000e+00 0.0000e+00
       11 -1    0    0    0    0 +1.9683608073e-21 -4.3107267093e-20 +2.7755542071e-17 5.1100000000e-04 5.1099893000e-04 0.0000e+00 1.0000e+00
       50  1    1    2    0    0 +6.5483556107e-03 -6.6834620258e-02 +4.2193685615e+01 4.2193739351e+01 4.9935713700e-03 0.0000e+00 0.0000e+00
       11  1    1    2    0    0 -3.5550781519e-03 +1.2815923670e-03 +1.4042830852e-02 1.4551401235e-02 5.1099893000e-04 0.0000e+00 1.0000e+00
<vert_displacement>
427.74070341164611
</vert_displacement>
</event>
<event>
 4   1200 +8.6263000e+09 2.23230400e-02 7.81665300e-03            nan
       50 -1    0    0    0    0 -8.5712755847e-03 +1.3160210489e-02 +1.7094406525e+01 1.7094414469e+01 4.9935713700e-03 0.0000e+00 0.0000e+00
       11 -1    0    0    0    0 -3.8271385079e-19 +5.8761321855e-19 +7.6327800729e-16 5.1100000000e-04 5.1099893000e-04 0.0000e+00 1.0000e+00
       50  1    1    2    0    0 -1.8390357314e-02 +3.2086334999e-02 +1.6617879347e+01 1.6617921250e+01 4.9935713700e-03 0.0000e+00 0.0000e+00
       11  1    1    2    0    0 +9.8190817297e-03 -1.8926124510e-02 +4.7652717864e-01 4.7700421975e-01 5.1099893000e-04 0.0000e+00 1.0000e+00
<vert_displacement>
377.37644744467502
</vert_displacement>
</event>
<event>
 4   1200 +8.6263000e+09 5.46790200e-03 7.81665300e-03            nan
       50 -1    0    0    0    0 +9.6589304644e-03 +2.9799234816e-02 +1.2759073823e+01 1.2759113255e+01 4.9935713700e-03 0.0000e+00 0.0000e+00
       11 -1    0    0    0    0 +6.4085334902e-19 +1.9771277473e-18 +8.4654250489e-16 5.1100000000e-04 5.1099893000e-04 0.0000e+00 1.0000e+00
       50  1    1    2    0    0 +1.1470271563e-02 +2.8496418144e-02 +1.2754218058e+01 1.2754256027e+01 4.9935713700e-03 0.0000e+00 0.0000e+00
       11  1    1    2    0    0 -1.8113410988e-03 +1.3028166725e-03 +4.8557653806e-03 5.3682273793e-03 5.1099893000e-04 0.0000e+00 1.0000e+00
<vert_displacement>
157.38820780958594
</vert_displacement>
</event>
<event>
 4   1200 +8.6263000e+09 1.76023700e-02 7.81665300e-03            nan
       50 -1    0    0    0    0 -1.6843541148e-05 -1.5751956701e-02 +1.9533441511e+01 1.9533448500e+01 4.9935713700e-03 0.0000e+00 0.0000e+00
       11 -1    0    0    0    0 +9.6930344417e-22 +9.0648550374e-19 -1.1241004469e-15 5.1100000000e-04 5.1099893000e-04 0.0000e+00 1.0000e+00
       50  1    1    2    0    0 -4.3933492764e-03 +7.7805531577e-04 +1.9250570907e+01 1.9250572072e+01 4.9935713700e-03 0.0000e+00 0.0000e+00
       11  1    1    2    0    0 +4.3765057352e-03 -1.6530012017e-02 +2.8287060322e-01 2.8338742807e-01 5.1099893000e-04 0.0000e+00 1.0000e+00
<vert_displacement>
183.33049119018048
</vert_displacement>
</event>
<event>
 4   1200 +8.6263000e+09 1.29547100e-02 7.81665300e-03            nan
       50 -1    0    0    0    0 +1.3539934746e-03 +7.5461498122e-05 +8.7408088925e-01 8.7409620506e-01 4.9935713700e-03 0.0000e+00 0.0000e+00
       11 -1    0    0    0    0 +7.7927846947e-20 +4.3431169991e-21 +5.0306920259e-17 5.1100000000e-04 5.1099893000e-04 0.0000e+00 1.0000e+00
       50  1    1    2    0    0 +7.0253744928e-03 -1.0310296298e-02 +6.9753725537e-01 6.9766669441e-01 4.9935713700e-03 0.0000e+00 0.0000e+00
       11  1    1    2    0    0 -5.6713810183e-03 +1.0385757796e-02 +1.7654363388e-01 1.7694051066e-01 5.1099893000e-04 0.0000e+00 1.0000e+00
<vert_displacement>
141.39795929307772
</vert_displacement>
</event>
<event>
 4   1200 +8.6263000e+09 3.63400700e-02 7.81665300e-03            nan
       50 -1    0    0    0    0 +6.0810701363e-02 +3.3754724094e-02 +3.1269555166e+01 3.1269632914e+01 4.9935713700e-03 0.0000e+00 0.0000e+00
       11 -1    0    0    0    0 -3.6974136907e-18 -2.0523555262e-18 -1.9012522267e-15 5.1100000000e-04 5.1099893000e-04 0.0000e+00 1.0000e+00
       50  1    1    2    0    0 +9.2775534468e-02 +2.2192030732e-02 +2.9945613865e+01 2.9945766220e+01 4.9935713700e-03 0.0000e+00 0.0000e+00
       11  1    1    2    0    0 -3.1964833105e-02 +1.1562693362e-02 +1.3239413008e+00 1.3243776937e+00 5.1099893000e-04 0.0000e+00 1.0000e+00
<vert_displacement>
53.928061605937280
</vert_displacement>
</event>
<event>
 4   1200 +8.6263000e+09 4.87826400e-02 7.81665300e-03            nan
       50 -1    0    0    0    0 +2.0922490555e-02 -3.6058102455e-02 +1.8013031148e+01 1.8013080081e+01 4.9935713700e-03 0.0000e+00 0.0000e+00
       11 -1    0    0    0    0 +2.2889378703e-18 -3.9447864023e-18 +1.9706405911e-15 5.1100000000e-04 5.1099893000e-04 0.0000e+00 1.0000e+00
       50  1    1    2    0    0 +6.3270712669e-02 -4.7495028038e-02 +1.5299456847e+01 1.5299662209e+01 4.9935713700e-03 0.0000e+00 0.0000e+00
       11  1    1    2    0    0 -4.2348222114e-02 +1.1436925583e-02 +2.7135743008e+00 2.7139288720e+00 5.1099893000e-04 0.0000e+00 1.0000e+00
<vert_displacement>
171.97380822904594
</vert_displacement>
</event>
<event>
 4   1200 +8.6263000e+09 2.62815800e-02 7.81665300e-03            nan
       50 -1    0    0    0    0 +1.0321396209e-02 -8.0977816061e-04 +3.4519953016e+00 3.4520144387e+00 4.9935713700e-03 0.0000e+00 0.0000e+00
       11 -1    0    0    0    0 +1.6597647418e-19 -1.3021893671e-20 +5.5510901571e-17 5.1100000000e-04 5.1099893000e-04 0.0000e+00 1.0000e+00
       50  1    1    2    0    0 +5.3177343737e-03 -2.6296642556e-02 +2.5772195190e+00 2.5773639977e+00 4.9935713700e-03 0.0000e+00 0.0000e+00
       11  1    1    2    0    0 +5.0036618355e-03 +2.5486864395e-02 +8.7477578257e-01 8.7516144098e-01 5.1099893000e-04 0.0000e+00 1.0000e+00
<vert_displacement>
218.82672676980937
</vert_displacement>
</event>
<event>
 4   1200 +8.6263000e+09 2.62894300e-02 7.81665300e-03            nan
       50 -1    0    0    0    0 -5.4374284921e-02 -3.1998652789e-02 +1.7250140218e+01 1.7250256316e+01 4.9935713700e-03 0.0000e+00 0.0000e+00
       11 -1    0    0    0    0 -7.6114520426e-18 -4.4792535935e-18 +2.4147189281e-15 5.1100000000e-04 5.1099893000e-04 0.0000e+00 1.0000e+00
       50  1    1    2    0    0 -3.6663560627e-02 -5.1324327090e-02 +1.6571545790e+01 1.6571666579e+01 4.9935713700e-03 0.0000e+00 0.0000e+00
       11  1    1    2    0    0 -1.7710724293e-02 +1.9325674302e-02 +6.7859442884e-01 6.7910073731e-01 5.1099893000e-04 0.0000e+00 1.0000e+00
<vert_displacement>
136.46364585874858
</vert_displacement>
</event>
<event>
 4   1200 +8.6263000e+09 1.11522200e-02 7.81665300e-03            nan
       50 -1    0    0    0    0 -3.8609761450e-02 +8.2558364482e-03 +1.5494784710e+01 1.5494835817e+01 4.9935713700e-03 0.0000e+00 0.0000e+00
       11 -1    0    0    0    0 -6.7431840915e-18 +1.4418795379e-18 +2.7061598371e-15 5.1100000000e-04 5.1099893000e-04 0.0000e+00 1.0000e+00
       50  1    1    2    0    0 -3.9679654028e-02 -1.6811697110e-03 +1.5396868320e+01 1.5396920352e+01 4.9935713700e-03 0.0000e+00 0.0000e+00
       11  1    1    2    0    0 +1.0698925784e-03 +9.9370061592e-03 +9.7916389380e-02 9.8426465905e-02 5.1099893000e-04 0.0000e+00 1.0000e+00
<vert_displacement>
261.44261597352585
</vert_displacement>
</event>
<event>
 4   1200 +8.6263000e+09 1.36756700e-02 7.81665300e-03            nan
       50 -1    0    0    0    0 +8.1162262001e-03 +1.0476414117e-02 +4.1453569623e+00 4.1453811537e+00 4.9935713700e-03 0.0000e+00 0.0000e+00
       11 -1    0    0    0    0 -9.1023816038e-19 -1.1749342216e-18 -4.6490351580e-16 5.1100000000e-04 5.1099893000e-04 0.0000e+00 1.0000e+00
       50  1    1    2    0    0 -1.2088905262e-03 +1.9062109905e-02 +3.9801086913e+00 3.9801576547e+00 4.9935713700e-03 0.0000e+00 0.0000e+00
       11  1    1    2    0    0 +9.3251167263e-03 -8.5856957883e-03 +1.6524827098e-01 1.6573449899e-01 5.1099893000e-04 0.0000e+00 1.0000e+00
<vert_displacement>
355.07139217812096
</vert_displacement>
</event>
<event>
 4   1200 +8.6263000e+09 2.76293800e-02 7.81665300e-03            nan
       50 -1    0    0    0    0 -4.3944136451e-02 -2.2209553643e-02 +1.7520801398e+01 1.7520871294e+01 4.9935713700e-03 0.0000e+00 0.0000e+00
       11 -1    0    0    0    0 -8.0752035909e-18 -4.0812422729e-18 +3.2196340580e-15 5.1100000000e-04 5.1099893000e-04 0.0000e+00 1.0000e+00
       50  1    1    2    0    0 -6.1281523137e-02 -4.0451104899e-02 +1.6765567021e+01 1.6765728561e+01 4.9935713700e-03 0.0000e+00 0.0000e+00
       11  1    1    2    0    0 +1.7337386686e-02 +1.8241551256e-02 +7.5523437677e-01 7.5565373297e-01 5.1099893000e-04 0.0000e+00 1.0000e+00
<vert_displacement>
0.42988480200593865
</vert_displacement>
</event>
<event>
 4   1200 +8.6263000e+09 1.43466700e-02 7.81665300e-03            nan
       50 -1    0    0    0    0 +7.1278963863e-03 +1.0796338444e-02 +8.9968594312e+00 8.9968701184e+00 4.9935713700e-03 0.0000e+00 0.0000e+00
       11 -1    0    0    0    0 +1.4293335543e-18 +2.1649541416e-18 +1.8041105498e-15 5.1100000000e-04 5.1099893000e-04 0.0000e+00 1.0000e+00
       50  1    1    2    0    0 +1.4419574486e-02 +2.1787350538e-02 +8.8161962862e+00 8.8162364139e+00 4.9935713700e-03 0.0000e+00 0.0000e+00
       11  1    1    2    0    0 -7.2916780997e-03 -1.0991012094e-02 +1.8066314494e-01 1.8114470452e-01 5.1099893000e-04 0.0000e+00 1.0000e+00
<vert_displacement>
433.98425147200783
</vert_displacement>
</event>
<event>
 4   1200 +8.6263000e+09 1.45071300e-02 7.81665300e-03            nan
       50 -1    0    0    0    0 +4.9313860565e-03 +7.8786413896e-03 +3.6027783796e+00 3.6027938298e+00 4.9935713700e-03 0.0000e+00 0.0000e+00
       11 -1    0    0    0    0 +1.8520592158e-19 +2.9589470843e-19 +1.3530798084e-16 5.1100000000e-04 5.1099893000e-04 0.0000e+00 1.0000e+00
       50  1    1    2    0    0 -2.8949905884e-03 -3.8682205819e-03 +3.4109776019e+00 3.4109846790e+00 4.9935713700e-03 0.0000e+00 0.0000e+00
       11  1    1    2    0    0 +7.8263766449e-03 +1.1746861972e-02 +1.9180077768e-01 1.9232015073e-01 5.1099893000e-04 0.0000e+00 1.0000e+00
<vert_displacement>
127.59660923399694
</vert_displacement>
</event>
<event>
 4   1200 +8.6263000e+09 3.39294800e-02 7.81665300e-03            nan
       50 -1    0    0    0    0 +2.5666141565e-02 -5.7486769754e-03 +2.5099053889e+01 2.5099068167e+01 4.9935713700e-03 0.0000e+00 0.0000e+00
       11 -1    0    0    0    0 +4.0445303499e-18 -9.0588990324e-19 +3.9551673535e-15 5.1100000000e-04 5.1099893000e-04 0.0000e+00 1.0000e+00
       50  1    1    2    0    0 -6.5871944672e-03 +7.1968700659e-03 +2.3943810263e+01 2.3943812772e+01 4.9935713700e-03 0.0000e+00 0.0000e+00
       11  1    1    2    0    0 +3.2253336032e-02 -1.2945547041e-02 +1.1552436256e+00 1.1557663952e+00 5.1099893000e-04 0.0000e+00 1.0000e+00
<vert_displacement>
165.93276134571977
</vert_displacement>
</event>
<event>
 4   1200 +8.6263000e+09 8.23994800e-03 7.81665300e-03            nan
       50 -1    0    0    0    0 +5.8902089614e-02 +1.5696032482e-02 +2.3536116305e+01 2.3536195773e+01 4.9935713700e-03 0.0000e+00 0.0000e+00
       11 -1    0    0    0    0 -2.3964246469e-18 -6.3859125110e-19 -9.5756414713e-16 5.1100000000e-04 5.1099893000e-04 0.0000e+00 -1.0000e+00
       50  1    1    2    0    0 +6.5308322987e-02 +1.4919966731e-02 +2.3493988119e+01 2.3494084159e+01 4.9935713700e-03 0.0000e+00 0.0000e+00
       11  1    1    2    0    0 -6.4062333734e-03 +7.7606575120e-04 +4.2128185060e-02 4.2622613721e-02 5.1099893000e-04 0.0000e+00 -1.0000e+00
<vert_displacement>
310.14659713449277
</vert_displacement>
</event>
<event>
 4   1200 +8.6263000e+09 4.28846000e-02 7.81665300e-03            nan
       50 -1    0    0    0    0 +4.2566798621e-02 -3.0597448547e-02 +1.4266588107e+01 1.4266685295e+01 4.9935713700e-03 0.0000e+00 0.0000e+00
       11 -1    0    0    0    0 +5.2172148531e-18 -3.7501871927e-18 +1.7485894591e-15 5.1100000000e-04 5.1099893000e-04 0.0000e+00 1.0000e+00
       50  1    1    2    0    0 +5.1151606304e-02 -6.6083497545e-02 +1.2187983347e+01 1.2188270858e+01 4.9935713700e-03 0.0000e+00 0.0000e+00
       11  1    1    2    0    0 -8.5848076830e-03 +3.5486048998e-02 +2.0786047604e+00 2.0789254363e+00 5.1099893000e-04 0.0000e+00 1.0000e+00
<vert_displacement>
286.48513244542858
</vert_displacement>
</event>
<event>
 4   1200 +8.6263000e+09 6.35389100e-03 7.81665300e-03            nan
       50 -1    0    0    0    0 -1.5204962978e-02 +1.2734653332e-02 +6.4845091724e+00 6.4845414260e+00 4.9935713700e-03 0.0000e+00 0.0000e+00
       11 -1    0    0    0    0 -7.4843537369e-19 +6.2683908137e-19 +3.1918762660e-16 5.1100000000e-04 5.1099893000e-04 0.0000e+00 1.0000e+00
       50  1    1    2    0    0 -1.1740033266e-02 +1.0787874196e-02 +6.4693804794e+00 6.4694020534e+00 4.9935713700e-03 0.0000e+00 0.0000e+00
       11  1    1    2    0    0 -3.4649297128e-03 +1.9467791367e-03 +1.5128693045e-02 1.5650372522e-02 5.1099893000e-04 0.0000e+00 1.0000e+00
<vert_displacement>
201.71632346339462
</vert_displacement>
</event>
<event>
 4   1200 +8.6263000e+09 3.21253900e-02 7.81665300e-03            nan
       50 -1    0    0    0    0 +1.6804563158e-02 -3.4485376150e-03 +1.5858634959e+01 1.5858645024e+01 4.9935713700e-03 0.0000e+00 0.0000e+00
       11 -1    0    0    0    0 -1.8087832390e-18 +3.7118828848e-19 -1.7069669017e-15 5.1100000000e-04 5.1099893000e-04 0.0000e+00 1.0000e+00
       50  1    1    2    0    0 +2.5199022418e-02 +2.7056497293e-02 +1.4802768873e+01 1.4802815891e+01 4.9935713700e-03 0.0000e+00 0.0000e+00
       11  1    1    2    0    0 -8.3944592605e-03 -3.0505034908e-02 +1.0558660857e+00 1.0563401328e+00 5.1099893000e-04 0.0000e+00 1.0000e+00
<vert_displacement>
259.51642080365463
</vert_displacement>
</event>
<event>
 4   1200 +8.6263000e+09 1.42733700e-02 7.81665300e-03            nan
       50 -1    0    0    0    0 -3.7109385911e-03 +5.8860527924e-03 +6.0123047668e+00 6.0123108670e+00 4.9935713700e-03 0.0000e+00 0.0000e+00
       11 -1    0    0    0    0 +4.7967905940e-19 -7.6083615984e-19 -7.7715559677e-16 5.1100000000e-04 5.1099893000e-04 0.0000e+00 1.0000e+00
       50  1    1    2    0    0 -2.2434809500e-03 -7.5929585960e-03 +5.8319250808e+00 5.8319325930e+00 4.9935713700e-03 0.0000e+00 0.0000e+00
       11  1    1    2    0    0 -1.4674576411e-03 +1.3479011388e-02 +1.8037968602e-01 1.8088927394e-01 5.1099893000e-04 0.0000e+00 1.0000e+00
<vert_displacement>
44.559147248027358
</vert_displacement>
</event>
<event>
 4   1200 +8.6263000e+09 1.14310200e-02 7.81665300e-03            nan
       50 -1    0    0    0    0 -6.5290174688e-03 +1.8460805704e-03 +2.8964670609e+00 2.8964793124e+00 4.9935713700e-03 0.0000e+00 0.0000e+00
       11 -1    0    0    0    0 -0.0000000000e+00 +0.0000000000e+00 +0.0000000000e+00 5.1100000000e-04 5.1099893000e-04 0.0000e+00 1.0000e+00
       50  1    1    2    0    0 -8.4054355996e-03 +1.1839539919e-02 +2.7889585076e+00 2.7890007742e+00 4.9935713700e-03 0.0000e+00 0.0000e+00
       11  1    1    2    0    0 +1.8764181308e-03 -9.9934593483e-03 +1.0750855337e-01 1.0798953812e-01 5.1099893000e-04 0.0000e+00 1.0000e+00
<vert_displacement>
448.01072015333563
</vert_displacement>
</event>
<event>
 4   1200 +8.6263000e+09 6.30717400e-02 7.81665300e-03            nan
       50 -1    0    0    0    0 -5.8069386635e-03 +3.7643437776e-02 +1.6355045270e+01 1.6355090384e+01 4.9935713700e-03 0.0000e+00 0.0000e+00
       11 -1    0    0    0    0 -1.3303879955e-19 +8.6242305331e-19 +3.7469925470e-16 5.1100000000e-04 5.1099893000e-04 0.0000e+00 1.0000e+00
       50  1    1    2    0    0 -5.7956561118e-02 +5.4709446247e-02 +1.0061598249e+01 1.0061915143e+01 4.9935713700e-03 0.0000e+00 0.0000e+00
       11  1    1    2    0    0 +5.2149622455e-02 -1.7066008471e-02 +6.2934470210e+00 6.2936862410e+00 5.1099893000e-04 0.0000e+00 1.0000e+00
<vert_displacement>
161.77511871952868
</vert_displacement>
</event>
<event>
 4   1200 +8.6263000e+09 2.42044700e-02 7.81665300e-03            nan
       50 -1    0    0    0    0 -2.3055562324e-02 +4.0827407671e-02 +1.7192135867e+01 1.7192200530e+01 4.9935713700e-03 0.0000e+00 0.0000e+00
       11 -1    0    0    0    0 -2.9963351441e-18 +5.3059905773e-18 +2.2343155277e-15 5.1100000000e-04 5.1099893000e-04 0.0000e+00 1.0000e+00
       50  1    1    2    0    0 -2.8989487254e-02 +1.6761722341e-02 +1.6624552842e+01 1.6624587317e+01 4.9935713700e-03 0.0000e+00 0.0000e+00
       11  1    1    2    0    0 +5.9339249293e-03 +2.4065685331e-02 +5.6758302555e-01 5.6812421238e-01 5.1099893000e-04 0.0000e+00 1.0000e+00
<vert_displacement>
493.99607314519312
</vert_displacement>
</event>
<event>
 4   1200 +8.6263000e+09 1.24502800e-02 7.81665300e-03            nan
       50 -1    0    0    0    0 -2.2049375716e-03 -1.3760962596e-02 +5.2999429642e+00 5.2999636400e+00 4.9935713700e-03 0.0000e+00 0.0000e+00
       11 -1    0    0    0    0 +1.2701836673e-19 +7.9271858583e-19 -3.0531027623e-16 5.1100000000e-04 5.1099893000e-04 0.0000e+00 1.0000e+00
       50  1    1    2    0    0 -7.0519720450e-03 -2.3720142384e-02 +5.1693999360e+00 5.1694615783e+00 4.9935713700e-03 0.0000e+00 0.0000e+00
       11  1    1    2    0    0 +4.8470344734e-03 +9.9591797871e-03 +1.3054302819e-01 1.3101306169e-01 5.1099893000e-04 0.0000e+00 1.0000e+00
<vert_displacement>
18.677728832658371
</vert_displacement>
</event>
<event>
 4   1200 +8.6263000e+09 3.95117400e-02 7.81665300e-03            nan
       50 -1    0    0    0    0 +1.1733604424e-02 -2.9254060252e-02 +2.0749818169e+01 2.0749842709e+01 4.9935713700e-03 0.0000e+00 0.0000e+00
       11 -1    0    0    0    0 +1.2085304853e-18 -3.0130914896e-18 +2.1371768567e-15 5.1100000000e-04 5.1099893000e-04 0.0000e+00 1.0000e+00
       50  1    1    2    0    0 +4.8305697024e-02 -3.8372194805e-02 +1.9118118715e+01 1.9118218902e+01 4.9935713700e-03 0.0000e+00 0.0000e+00
       11  1    1    2    0    0 -3.6572092600e-02 +9.1181345536e-03 +1.6316994537e+00 1.6321348065e+00 5.1099893000e-04 0.0000e+00 1.0000e+00
<vert_displacement>
309.53895994885625
</vert_displacement>
</event>
<event>
 4   1200 +8.6263000e+09 5.29486500e-03 7.81665300e-03            nan
       50 -1    0    0    0    0 -1.3829686193e-02 +9.0715714052e-03 +5.4657928062e+00 5.4658201113e+00 4.9935713700e-03 0.0000e+00 0.0000e+00
       11 -1    0    0    0    0 +7.0227532787e-20 -4.6065692987e-20 -2.7755448543e-17 5.1100000000e-04 5.1099893000e-04 0.0000e+00 1.0000e+00
       50  1    1    2    0    0 -1.3553566017e-02 +1.0806583141e-02 +5.4627555272e+00 5.4627853122e+00 4.9935713700e-03 0.0000e+00 0.0000e+00
       11  1    1    2    0    0 -2.7612017670e-04 -1.7350117355e-03 +3.0372790013e-03 3.5457991641e-03 5.1099893000e-04 0.0000e+00 1.0000e+00
<vert_displacement>
209.98831864593464
</vert_displacement>
</event>
<event>
 4   1200 +8.6263000e+09 6.24702800e-03 7.81665300e-03            nan
       50 -1    0    0    0    0 -9.4402753427e-04 +2.9419526374e-03 +6.3653095368e+00 6.3653122454e+00 4.9935713700e-03 0.0000e+00 0.0000e+00
       11 -1    0    0    0    0 +7.4094816396e-20 -2.3090792651e-19 -4.9960030223e-16 5.1100000000e-04 5.1099893000e-04 0.0000e+00 1.0000e+00
       50  1    1    2    0    0 -5.0155787642e-04 -7.9211867854e-04 +6.3514937981e+00 6.3514958303e+00 4.9935713700e-03 0.0000e+00 0.0000e+00
       11  1    1    2    0    0 -4.4246965785e-04 +3.7340713159e-03 +1.3815738717e-02 1.4327415126e-02 5.1099893000e-04 0.0000e+00 1.0000e+00
<vert_displacement>
237.38004083445580
</vert_displacement>
</event>
<event>
 4   1200 +8.6263000e+09 1.03477300e-02 7.81665300e-03            nan
       50 -1    0    0    0    0 -6.5598639366e-02 +5.9529993546e-02 +2.2885566593e+01 2.2885738577e+01 4.9935713700e-03 0.0000e+00 0.0000e+00
       11 -1    0    0    0    0 -6.3248069786e-18 +5.7396879304e-18 +2.2065517318e-15 5.1100000000e-04 5.1099893000e-04 0.0000e+00 1.0000e+00
       50  1    1    2    0    0 -6.2644728256e-02 +5.0675781354e-02 +2.2804939444e+01 2.2805082336e+01 4.9935713700e-03 0.0000e+00 0.0000e+00
       11  1    1    2    0    0 -2.9539111095e-03 +8.8542121918e-03 +8.0627149167e-02 8.1167240727e-02 5.1099893000e-04 0.0000e+00 1.0000e+00
<vert_displacement>
263.87195980674147
</vert_displacement>
</event>
<event>
 4   1200 +8.6263000e+09 2.47686500e-02 7.81665300e-03            nan
       50 -1    0    0    0    0 -2.7096732808e-02 -1.3002634103e-03 +1.0884897588e+01 1.0884932538e+01 4.9935713700e-03 0.0000e+00 0.0000e+00
       11 -1    0    0    0    0 +3.4028883989e-18 +1.6329095119e-19 -1.3669578538e-15 5.1100000000e-04 5.1099893000e-04 0.0000e+00 1.0000e+00
       50  1    1    2    0    0 -3.4948728484e-03 -1.1271982832e-02 +1.0274763488e+01 1.0274771479e+01 4.9935713700e-03 0.0000e+00 0.0000e+00
       11  1    1    2    0    0 -2.3601859960e-02 +9.9717194212e-03 +6.1013409917e-01 6.1067205854e-01 5.1099893000e-04 0.0000e+00 1.0000e+00
<vert_displacement>
21.721322492958173
</vert_displacement>
</event>
<event>
 4   1200 +8.6263000e+09 5.29654000e-03 7.81665300e-03            nan
       50 -1    0    0    0    0 +1.5080065715e-01 +9.5732613777e-03 +4.8543731995e+01 4.8543967426e+01 4.9935713700e-03 0.0000e+00 0.0000e+00
       11 -1    0    0    0    0 +3.3195478764e-18 +2.1073448935e-19 +1.0685844844e-15 5.1100000000e-04 5.1099893000e-04 0.0000e+00 1.0000e+00
       50  1    1    2    0    0 +1.5251561629e-01 +9.9519594537e-03 +4.8540675888e+01 4.8540916768e+01 4.9935713700e-03 0.0000e+00 0.0000e+00
       11  1    1    2    0    0 -1.7149591412e-03 -3.7869807606e-04 +3.0561069646e-03 3.5616578688e-03 5.1099893000e-04 0.0000e+00 1.0000e+00
<vert_displacement>
499.59612525882449
</vert_displacement>
</event>
<event>
 4   1200 +8.6263000e+09 1.02003200e-02 7.81665300e-03            nan
       50 -1    0    0    0    0 +1.4524509048e-03 +9.3110729136e-04 +5.0838809185e+00 5.0838836637e+00 4.9935713700e-03 0.0000e+00 0.0000e+00
       11 -1    0    0    0    0 -2.3392590673e-19 -1.4996039912e-19 -8.1878943351e-16 5.1100000000e-04 5.1099893000e-04 0.0000e+00 1.0000e+00
       50  1    1    2    0    0 +9.8678722319e-03 +3.7296710357e-03 +5.0052402632e+00 5.0052538710e+00 4.9935713700e-03 0.0000e+00 0.0000e+00
       11  1    1    2    0    0 -8.4154213271e-03 -2.7985637444e-03 +7.8640655336e-02 7.9140792684e-02 5.1099893000e-04 0.0000e+00 1.0000e+00
<vert_displacement>
228.31359330240531
</vert_displacement>
</event>
<event>
 4   1200 +8.6263000e+09 3.00395600e-02 7.81665300e-03            nan
       50 -1    0    0    0    0 +1.8127961214e-03 -2.1087065784e-03 +3.5376865722e+00 3.5376911894e+00 4.9935713700e-03 0.0000e+00 0.0000e+00
       11 -1    0    0    0    0 -3.3778730881e-20 +3.9292577460e-20 -6.5919471722e-17 5.1100000000e-04 5.1099893000e-04 0.0000e+00 -1.0000e+00
       50  1    1    2    0    0 +2.0457717707e-02 -2.3043335489e-02 +1.5173644521e+00 1.5176855174e+00 4.9935713700e-03 0.0000e+00 0.0000e+00
       11  1    1    2    0    0 -1.8644921586e-02 +2.0934628910e-02 +2.0203221201e+00 2.0205166720e+00 5.1099893000e-04 0.0000e+00 -1.0000e+00
<vert_displacement>
128.39738520979898
</vert_displacement>
</event>
<event>
 4   1200 +8.6263000e+09 1.97230900e-02 7.81665300e-03            nan
       50 -1    0    0    0    0 -4.9270423806e-03 -1.1852910483e-02 +5.6580844339e+00 5.6581011977e+00 4.9935713700e-03 0.0000e+00 0.0000e+00
       11 -1    0    0    0    0 +4.8338813972e-20 +1.1628794530e-19 -5.5511008381e-17 5.1100000000e-04 5.1099893000e-04 0.0000e+00 1.0000e+00
       50  1    1    2    0    0 -2.6979744569e-03 +7.9336866208e-03 +5.2759413560e+00 5.2759503741e+00 4.9935713700e-03 0.0000e+00 0.0000e+00
       11  1    1    2    0    0 -2.2290679237e-03 -1.9786597104e-02 +3.8214307792e-01 3.8266182367e-01 5.1099893000e-04 0.0000e+00 1.0000e+00
<vert_displacement>
474.55209423392216
</vert_displacement>
</event>
<event>
 4   1200 +8.6263000e+09 6.10385200e-03 7.81665300e-03            nan
       50 -1    0    0    0    0 +3.5686212046e-03 +1.7075239019e-02 +7.5449569449e+00 7.5449787630e+00 4.9935713700e-03 0.0000e+00 0.0000e+00
       11 -1    0    0    0    0 -7.5484991121e-20 -3.6118270666e-19 -1.5959413324e-16 5.1100000000e-04 5.1099893000e-04 0.0000e+00 1.0000e+00
       50  1    1    2    0    0 +5.6713832675e-03 +1.4241566509e-02 +7.5328861058e+00 7.5329033583e+00 4.9935713700e-03 0.0000e+00 0.0000e+00
       11  1    1    2    0    0 -2.1027620629e-03 +2.8336725094e-03 +1.2070839085e-02 1.2586404741e-02 5.1099893000e-04 0.0000e+00 1.0000e+00
<vert_displacement>
132.62483161837886
</vert_displacement>
</event>
<event>
 4   1200 +8.6263000e+09 1.57114000e-02 7.81665300e-03            nan
       50 -1    0    0    0    0 -6.8956421862e-03 +1.7112743557e-03 +8.6045440450e+00 8.6045484272e+00 4.9935713700e-03 0.0000e+00 0.0000e+00
       11 -1    0    0    0    0 -1.5014148921e-19 +3.7260239623e-20 +1.8735007154e-16 5.1100000000e-04 5.1099893000e-04 0.0000e+00 1.0000e+00
       50  1    1    2    0    0 -9.4801266862e-03 +1.6305154608e-02 +8.3815980485e+00 8.3816207569e+00 4.9935713700e-03 0.0000e+00 0.0000e+00
       11  1    1    2    0    0 +2.5844845000e-03 -1.4593880252e-02 +2.2294599650e-01 2.2343867028e-01 5.1099893000e-04 0.0000e+00 1.0000e+00
<vert_displacement>
135.60585829995338
</vert_displacement>
</event>
<event>
 4   1200 +8.6263000e+09 5.11486200e-03 7.81665300e-03            nan
       50 -1    0    0    0    0 +4.0868001621e-03 -3.6429082059e-02 +1.5583072592e+01 1.5583116509e+01 4.9935713700e-03 0.0000e+00 0.0000e+00
       11 -1    0    0    0    0 +7.5702929225e-19 -6.7480378573e-18 +2.8865718772e-15 5.1100000000e-04 5.1099893000e-04 0.0000e+00 1.0000e+00
       50  1    1    2    0    0 +3.1022475017e-03 -3.5919003189e-02 +1.5581874248e+01 1.5581916757e+01 4.9935713700e-03 0.0000e+00 0.0000e+00
       11  1    1    2    0    0 +9.8455266033e-04 -5.1007887004e-04 +1.1983445223e-03 1.7107524354e-03 5.1099893000e-04 0.0000e+00 1.0000e+00
<vert_displacement>
38.512202367588216
</vert_displacement>
</event>
<event>
 4   1200 +8.6263000e+09 2.89861100e-02 7.81665300e-03            nan
       50 -1    0    0    0    0 +3.1603422812e-03 +9.6069491111e-04 +5.7712756496e+00 5.7712787552e+00 4.9935713700e-03 0.0000e+00 0.0000e+00
       11 -1    0    0    0    0 -2.6978066974e-19 -8.2009128594e-20 -4.9266138649e-16 5.1100000000e-04 5.1099893000e-04 0.0000e+00 1.0000e+00
       50  1    1    2    0    0 -2.5662402752e-02 +4.6024876445e-03 +4.8140888227e+00 4.8141620112e+00 4.9935713700e-03 0.0000e+00 0.0000e+00
       11  1    1    2    0    0 +2.8822745034e-02 -3.6417927334e-03 +9.5718682692e-01 9.5762774397e-01 5.1099893000e-04 0.0000e+00 1.0000e+00
<vert_displacement>
489.01282809683403
</vert_displacement>
</event>
<event>
 4   1200 +8.6263000e+09 1.69587400e-02 7.81665300e-03            nan
       50 -1    0    0    0    0 +2.5253510599e-02 -2.9627890095e-02 +1.7971426154e+01 1.7971469014e+01 4.9935713700e-03 0.0000e+00 0.0000e+00
       11 -1    0    0    0    0 +8.3854600950e-19 -9.8379783323e-19 +5.9674347562e-16 5.1100000000e-04 5.1099893000e-04 0.0000e+00 1.0000e+00
       50  1    1    2    0    0 +3.8264311536e-02 -2.0048540410e-02 +1.7710616973e+01 1.7710670360e+01 4.9935713700e-03 0.0000e+00 0.0000e+00
       11  1    1    2    0    0 -1.3010800936e-02 -9.5793496850e-03 +2.6080918174e-01 2.6130965401e-01 5.1099893000e-04 0.0000e+00 1.0000e+00
<vert_displacement>
496.45260227481845
</vert_displacement>
</event>
<event>
 4   1200 +8.6263000e+09 1.17068400e-02 7.81665300e-03            nan
       50 -1    0    0    0    0 -2.8309738310e-02 -5.1513641782e-02 +2.5155520585e+01 2.5155589755e+01 4.9935713700e-03 0.0000e+00 0.0000e+00
       11 -1    0    0    0    0 -3.5140191251e-18 -6.3942633605e-18 +3.1224937323e-15 5.1100000000e-04 5.1099893000e-04 0.0000e+00 1.0000e+00
       50  1    1    2    0    0 -1.9486316304e-02 -4.5251954351e-02 +2.5045356851e+01 2.5045405810e+01 4.9935713700e-03 0.0000e+00 0.0000e+00
       11  1    1    2    0    0 -8.8234220066e-03 -6.2616874309e-03 +1.1016373428e-01 1.1069494557e-01 5.1099893000e-04 0.0000e+00 1.0000e+00
<vert_displacement>
229.92995567233456
</vert_displacement>
</event>
<event>
 4   1200 +8.6263000e+09 2.09289900e-02 7.81665300e-03            nan
       50 -1    0    0    0    0 -1.7298225048e-02 +9.9739309078e-04 +1.1364565343e+01 1.1364579648e+01 4.9935713700e-03 0.0000e+00 0.0000e+00
       11 -1    0    0    0    0 +2.1123625093e-20 -1.2179606672e-21 -1.3877771678e-17 5.1100000000e-04 5.1099893000e-04 0.0000e+00 1.0000e+00
       50  1    1    2    0    0 -9.2177899320e-03 -1.7952681277e-02 +1.0944829584e+01 1.0944849328e+01 4.9935713700e-03 0.0000e+00 0.0000e+00
       11  1    1    2    0    0 -8.0804351157e-03 +1.8950074368e-02 +4.1973575913e-01 4.2024132039e-01 5.1099893000e-04 0.0000e+00 1.0000e+00
<vert_displacement>
146.98781765811395
</vert_displacement>
</event>
<event>
 4   1200 +8.6263000e+09 1.03151700e-02 7.81665300e-03            nan
       50 -1    0    0    0    0 -1.8580312250e-02 -2.1974534868e-02 +1.2914432020e+01 1.2914465047e+01 4.9935713700e-03 0.0000e+00 0.0000e+00
       11 -1    0    0    0    0 -1.4475543170e-18 -1.7119912941e-18 +1.0061371182e-15 5.1100000000e-04 5.1099893000e-04 0.0000e+00 1.0000e+00
       50  1    1    2    0    0 -1.7610158508e-02 -3.0823378171e-02 +1.2834202508e+01 1.2834252574e+01 4.9935713700e-03 0.0000e+00 0.0000e+00
       11  1    1    2    0    0 -9.7015374190e-04 +8.8488433030e-03 +8.0229512827e-02 8.0723472884e-02 5.1099893000e-04 0.0000e+00 1.0000e+00
<vert_displacement>
122.76036966347667
</vert_displacement>
</event>
<event>
 4   1200 +8.6263000e+09 1.54292300e-02 7.81665300e-03            nan
       50 -1    0    0    0    0 +6.3670058607e-04 -1.7477506827e-02 +1.2553180057e+01 1.2553193234e+01 4.9935713700e-03 0.0000e+00 0.0000e+00
       11 -1    0    0    0    0 -4.8919962713e-20 +1.3428587958e-18 -9.6450531659e-16 5.1100000000e-04 5.1099893000e-04 0.0000e+00 1.0000e+00
       50  1    1    2    0    0 -1.3864177980e-02 -1.8960281981e-02 +1.2341040714e+01 1.2341064077e+01 4.9935713700e-03 0.0000e+00 0.0000e+00
       11  1    1    2    0    0 +1.4500878566e-02 +1.4827751539e-03 +2.1213934323e-01 2.1264015653e-01 5.1099893000e-04 0.0000e+00 1.0000e+00
<vert_displacement>
80.467197906607069
</vert_displacement>
</event>
<event>
 4   1200 +8.6263000e+09 8.81069100e-03 7.81665300e-03            nan
       50 -1    0    0    0    0 +1.8229914459e-03 -3.2119048839e-03 +4.2820597831e+00 4.2820642874e+00 4.9935713700e-03 0.0000e+00 0.0000e+00
       11 -1    0    0    0    0 -1.1816312865e-19 +2.0819007728e-19 -2.7755565292e-16 5.1100000000e-04 5.1099893000e-04 0.0000e+00 1.0000e+00
       50  1    1    2    0    0 -5.1038963786e-03 -9.3262876897e-04 +4.2298599595e+00 4.2298660892e+00 4.9935713700e-03 0.0000e+00 0.0000e+00
       11  1    1    2    0    0 +6.9268878245e-03 -2.2792761149e-03 +5.2199823607e-02 5.2709198239e-02 5.1099893000e-04 0.0000e+00 1.0000e+00
<vert_displacement>
47.430626062668956
</vert_displacement>
</event>
<event>
 4   1200 +8.6263000e+09 2.83007000e-02 7.81665300e-03            nan
       50 -1    0    0    0    0 -2.9674594515e-03 -3.0068949529e-02 +1.3153718482e+01 1.3153754133e+01 4.9935713700e-03 0.0000e+00 0.0000e+00
       11 -1    0    0    0    0 +1.5340920792e-19 +1.5544791110e-18 -6.8000980854e-16 5.1100000000e-04 5.1099893000e-04 0.0000e+00 1.0000e+00
       50  1    1    2    0    0 -2.9674005249e-02 -2.0941129988e-02 +1.2344541481e+01 1.2344595919e+01 4.9935713700e-03 0.0000e+00 0.0000e+00
       11  1    1    2    0    0 +2.6706545798e-02 -9.1278195418e-03 +8.0917700049e-01 8.0966921389e-01 5.1099893000e-04 0.0000e+00 1.0000e+00
<vert_displacement>
58.239554037694674
</vert_displacement>
</event>
<event>
 4   1200 +8.6263000e+09 9.80259400e-03 7.81665300e-03            nan
       50 -1    0    0    0    0 -4.9663343487e-03 -7.0543003645e-03 +1.3353807532e+01 1.3353811252e+01 4.9935713700e-03 0.0000e+00 0.0000e+00
       11 -1    0    0    0    0 +2.9160800503e-19 +4.1420700092e-19 -7.8409484751e-16 5.1100000000e-04 5.1099893000e-04 0.0000e+00 1.0000e+00
       50  1    1    2    0    0 -9.3522168965e-03 +1.7225835734e-04 +1.3283816117e+01 1.3283820349e+01 4.9935713700e-03 0.0000e+00 0.0000e+00
       11  1    1    2    0    0 +4.3858825478e-03 -7.2265587218e-03 +6.9991414639e-02 7.0501903235e-02 5.1099893000e-04 0.0000e+00 1.0000e+00
<vert_displacement>
72.295479662363263
</vert_displacement>
</event>
<event>
 4   1200 +8.6263000e+09 1.80708200e-02 7.81665300e-03            nan
       50 -1    0    0    0    0 +6.0947479743e-02 -7.5579255199e-03 +1.8986875152e+01 1.8986975133e+01 4.9935713700e-03 0.0000e+00 0.0000e+00
       11 -1    0    0    0    0 +2.6728308684e-19 -3.3145023741e-20 +8.3266291265e-17 5.1100000000e-04 5.1099893000e-04 0.0000e+00 1.0000e+00
       50  1    1    2    0    0 +4.5621683280e-02 -1.7201519831e-02 +1.8687042683e+01 1.8687106957e+01 4.9935713700e-03 0.0000e+00 0.0000e+00
       11  1    1    2    0    0 +1.5325796463e-02 +9.6435943108e-03 +2.9983246904e-01 3.0037917631e-01 5.1099893000e-04 0.0000e+00 1.0000e+00
<vert_displacement>
456.21687410030034
</vert_displacement>
</event>
<event>
 4   1200 +8.6263000e+09 2.52404200e-02 7.81665300e-03            nan
       50 -1    0    0    0    0 -1.1970173108e-01 -1.4374786161e-02 +4.6106441107e+01 4.6106599003e+01 4.9935713700e-03 0.0000e+00 0.0000e+00
       11 -1    0    0    0    0 +9.9801566313e-18 +1.1985007747e-18 -3.8441340807e-15 5.1100000000e-04 5.1099893000e-04 0.0000e+00 1.0000e+00
       50  1    1    2    0    0 -1.1382444988e-01 -3.8550280711e-02 +4.5499480003e+01 4.5499638983e+01 4.9935713700e-03 0.0000e+00 0.0000e+00
       11  1    1    2    0    0 -5.8772812015e-03 +2.4175494550e-02 +6.0696110356e-01 6.0747101933e-01 5.1099893000e-04 0.0000e+00 1.0000e+00
<vert_displacement>
132.59472579879616
</vert_displacement>
</event>
<event>
 4   1200 +8.6263000e+09 5.67712600e-03 7.81665300e-03            nan
       50 -1    0    0    0    0 +1.3585295487e-02 +5.5679065092e-03 +4.9007112397e+00 4.9007357767e+00 4.9935713700e-03 0.0000e+00 0.0000e+00
       11 -1    0    0    0    0 -5.7705808233e-20 -2.3650611470e-20 -2.0816588293e-17 5.1100000000e-04 5.1099893000e-04 0.0000e+00 1.0000e+00
       50  1    1    2    0    0 +1.3312281460e-02 +2.8709411216e-03 +4.8935668120e+00 4.8935883091e+00 4.9935713700e-03 0.0000e+00 0.0000e+00
       11  1    1    2    0    0 +2.7301402716e-04 +2.6969653876e-03 +7.1444276804e-03 7.6584675849e-03 5.1099893000e-04 0.0000e+00 1.0000e+00
<vert_displacement>
70.189373767282589
</vert_displacement>
</event>
<event>
 4   1200 +8.6263000e+09 1.38264000e-02 7.81665300e-03            nan
       50 -1    0    0    0    0 -1.1901834748e-01 -1.3638684902e-01 +5.6128762191e+01 5.6129054301e+01 4.9935713700e-03 0.0000e+00 0.0000e+00
       11 -1    0    0    0    0 -1.1770812095e-19 -1.3488541943e-19 +5.5510862556e-17 5.1100000000e-04 5.1099893000e-04 0.0000e+00 1.0000e+00
       50  1    1    2    0    0 -1.1290209908e-01 -1.2446070365e-01 +5.5965672196e+01 5.5965924692e+01 4.9935713700e-03 0.0000e+00 0.0000e+00
       11  1    1    2    0    0 -6.1162484013e-03 -1.1926145365e-02 +1.6308999536e-01 1.6364060970e-01 5.1099893000e-04 0.0000e+00 1.0000e+00
<vert_displacement>
1.1819300471290728
</vert_displacement>
</event>
<event>
 4   1200 +8.6263000e+09 6.76616000e-03 7.81665300e-03            nan
       50 -1    0    0    0    0 +3.8977170080e-02 +3.0483020864e-02 +1.7345391503e+01 1.7345462800e+01 4.9935713700e-03 0.0000e+00 0.0000e+00
       11 -1    0    0    0    0 -2.8066430509e-18 -2.1950018050e-18 -1.2489958205e-15 5.1100000000e-04 5.1099893000e-04 0.0000e+00 1.0000e+00
       50  1    1    2    0    0 +3.5367529770e-02 +2.7593246719e-02 +1.7324983493e+01 1.7325042286e+01 4.9935713700e-03 0.0000e+00 0.0000e+00
       11  1    1    2    0    0 +3.6096403098e-03 +2.8897741447e-03 +2.0408009418e-02 2.0931513707e-02 5.1099893000e-04 0.0000e+00 1.0000e+00
<vert_displacement>
496.90910710303780
</vert_displacement>
</event>
<event>
 4   1200 +8.6263000e+09 1.09155300e-02 7.81665300e-03            nan
       50 -1    0    0    0    0 -1.6394457923e-02 -1.2660291423e-03 +5.8495157024e+00 5.8495409452e+00 4.9935713700e-03 0.0000e+00 0.0000e+00
       11 -1    0    0    0    0 -3.8895170291e-20 -3.0036015410e-21 +1.3877732977e-17 5.1100000000e-04 5.1099893000e-04 0.0000e+00 1.0000e+00
       50  1    1    2    0    0 -1.6990104925e-02 -1.0914065499e-02 +5.7558114736e+00 5.7558490629e+00 4.9935713700e-03 0.0000e+00 0.0000e+00
       11  1    1    2    0    0 +5.9564700185e-04 +9.6480363565e-03 +9.3704228884e-02 9.4202882289e-02 5.1099893000e-04 0.0000e+00 1.0000e+00
<vert_displacement>
315.90902450332561
</vert_displacement>
</event>
<event>
 4   1200 +8.6263000e+09 1.30411400e-02 7.81665300e-03            nan
       50 -1    0    0    0    0 +4.3264793114e-03 +1.2635421087e-03 +7.7105082206e+00 7.7105111549e+00 4.9935713700e-03 0.0000e+00 0.0000e+00
       11 -1    0    0    0    0 -2.6086547351e-19 -7.6185389265e-20 -4.6490581213e-16 5.1100000000e-04 5.1099893000e-04 0.0000e+00 1.0000e+00
       50  1    1    2    0    0 -7.7979755048e-03 +1.5498816767e-03 +7.5657682780e+00 7.5657741033e+00 4.9935713700e-03 0.0000e+00 0.0000e+00
       11  1    1    2    0    0 +1.2124454816e-02 -2.8633956795e-04 +1.4473994256e-01 1.4524805157e-01 5.1099893000e-04 0.0000e+00 1.0000e+00
<vert_displacement>
324.90834184430224
</vert_displacement>
</event>
<event>
 4   1200 +8.6263000e+09 7.57445900e-03 7.81665300e-03            nan
       50 -1    0    0    0    0 +6.4311339494e-03 -7.1220093495e-03 +3.5757721573e+00 3.5757885199e+00 4.9935713700e-03 0.0000e+00 0.0000e+00
       11 -1    0    0    0    0 -4.6799117966e-19 +5.1826592063e-19 -2.6020758442e-16 5.1100000000e-04 5.1099893000e-04 0.0000e+00 1.0000e+00
       50  1    1    2    0    0 +1.1080306973e-02 -3.8515194781e-03 +3.5437383174e+00 3.5437612512e+00 4.9935713700e-03 0.0000e+00 0.0000e+00
       11  1    1    2    0    0 -4.6491730232e-03 -3.2704898715e-03 +3.2033839910e-02 3.2538268747e-02 5.1099893000e-04 0.0000e+00 1.0000e+00
<vert_displacement>
59.292604446376757
</vert_displacement>
</event>
<event>
 4   1200 +8.6263000e+09 7.99264300e-03 7.81665300e-03            nan
       50 -1    0    0    0    0 +7.8695014178e-03 +5.0912976474e-03 +2.0709401247e+01 2.0709403970e+01 4.9935713700e-03 0.0000e+00 0.0000e+00
       11 -1    0    0    0    0 -6.9610347984e-19 -4.5035508873e-19 -1.8318678030e-15 5.1100000000e-04 5.1099893000e-04 0.0000e+00 1.0000e+00
       50  1    1    2    0    0 +1.0569037124e-02 +1.0701569078e-02 +2.0671219216e+01 2.0671225291e+01 4.9935713700e-03 0.0000e+00 0.0000e+00
       11  1    1    2    0    0 -2.6995357066e-03 -5.6102714306e-03 +3.8182030532e-02 3.8689678391e-02 5.1099893000e-04 0.0000e+00 1.0000e+00
<vert_displacement>
307.55242875018814
</vert_displacement>
</event>
<event>
 4   1200 +8.6263000e+09 2.14596100e-02 7.81665300e-03            nan
       50 -1    0    0    0    0 -2.0701499823e-02 +2.9244733466e-03 +9.7949844003e+00 9.7950079858e+00 4.9935713700e-03 0.0000e+00 0.0000e+00
       11 -1    0    0    0    0 +7.7725440137e-19 -1.0980169552e-19 -3.6776053916e-16 5.1100000000e-04 5.1099893000e-04 0.0000e+00 1.0000e+00
       50  1    1    2    0    0 -1.0701145466e-02 -1.6012082393e-02 +9.3483685478e+00 9.3483897193e+00 4.9935713700e-03 0.0000e+00 0.0000e+00
       11  1    1    2    0    0 -1.0000354358e-02 +1.8936555740e-02 +4.4661585241e-01 4.4712926652e-01 5.1099893000e-04 0.0000e+00 1.0000e+00
<vert_displacement>
148.89151992290422
</vert_displacement>
</event>
<event>
 4   1200 +8.6263000e+09 1.16704400e-02 7.81665300e-03            nan
       50 -1    0    0    0    0 +3.8036070468e-03 -7.9956710949e-05 +8.8996241951e+00 8.8996264092e+00 4.9935713700e-03 0.0000e+00 0.0000e+00
       11 -1    0    0    0    0 -4.4484164881e-20 +9.3511434526e-22 -1.0408339905e-16 5.1100000000e-04 5.1099893000e-04 0.0000e+00 1.0000e+00
       50  1    1    2    0    0 +1.4046815833e-02 +2.2389147638e-03 +8.7893759164e+00 8.7893888445e+00 4.9935713700e-03 0.0000e+00 0.0000e+00
       11  1    1    2    0    0 -1.0243208786e-02 -2.3188714747e-03 +1.1024827872e-01 1.1074856464e-01 5.1099893000e-04 0.0000e+00 1.0000e+00
<vert_displacement>
258.00752016986308
</vert_displacement>
</event>
<event>
 4   1200 +8.6263000e+09 2.09868000e-02 7.81665300e-03            nan
       50 -1    0    0    0    0 -4.3783534429e-02 -7.9676590076e-03 +2.7053820380e+01 2.7053857444e+01 4.9935713700e-03 0.0000e+00 0.0000e+00
       11 -1    0    0    0    0 -4.4245396999e-18 -8.0517080346e-19 +2.7339204993e-15 5.1100000000e-04 5.1099893000e-04 0.0000e+00 1.0000e+00
       50  1    1    2    0    0 -5.1600094803e-02 -2.6380309066e-02 +2.6640921919e+01 2.6640985419e+01 4.9935713700e-03 0.0000e+00 0.0000e+00
       11  1    1    2    0    0 +7.8165603734e-03 +1.8412650058e-02 +4.1289846152e-01 4.1338302450e-01 5.1099893000e-04 0.0000e+00 1.0000e+00
<vert_displacement>
449.36226010185766
</vert_displacement>
</event>
<event>
 4   1200 +8.6263000e+09 2.43312700e-02 7.81665300e-03            nan
       50 -1    0    0    0    0 -1.4365917815e-02 +2.6535125876e-03 +4.8016352094e+00 4.8016600297e+00 4.9935713700e-03 0.0000e+00 0.0000e+00
       11 -1    0    0    0    0 -3.5292414671e-19 +6.5188223808e-20 +1.1796065040e-16 5.1100000000e-04 5.1099893000e-04 0.0000e+00 1.0000e+00
       50  1    1    2    0    0 -1.2882674247e-02 -2.1510041218e-02 +4.1607481341e+00 4.1608266746e+00 4.9935713700e-03 0.0000e+00 0.0000e+00
       11  1    1    2    0    0 -1.4832435676e-03 +2.4163553805e-02 +6.4088707535e-01 6.4134435510e-01 5.1099893000e-04 0.0000e+00 1.0000e+00
<vert_displacement>
275.48959207227728
</vert_displacement>
</event>
<event>
 4   1200 +8.6263000e+09 1.41966200e-02 7.81665300e-03            nan
       50 -1    0    0    0    0 +7.8113234160e-04 +3.2315524924e-02 +1.3171814523e+01 1.3171855134e+01 4.9935713700e-03 0.0000e+00 0.0000e+00
       11 -1    0    0    0    0 +3.1685362303e-20 +1.3108266816e-18 +5.3429322168e-16 5.1100000000e-04 5.1099893000e-04 0.0000e+00 1.0000e+00
       50  1    1    2    0    0 +2.2272596697e-03 +4.5095133129e-02 +1.2996636068e+01 1.2996715452e+01 4.9935713700e-03 0.0000e+00 0.0000e+00
       11  1    1    2    0    0 -1.4461273280e-03 -1.2779608205e-02 +1.7517845557e-01 1.7565068199e-01 5.1099893000e-04 0.0000e+00 1.0000e+00
<vert_displacement>
334.70394668656365
</vert_displacement>
</event>
<event>
 4   1200 +8.6263000e+09 2.15180100e-02 7.81665300e-03            nan
       50 -1    0    0    0    0 -2.9757483405e-03 -2.3443717467e-04 +6.7767500403e+00 6.7767525375e+00 4.9935713700e-03 0.0000e+00 0.0000e+00
       11 -1    0    0    0    0 -1.2492483796e-19 -9.8419028448e-21 +2.8449462246e-16 5.1100000000e-04 5.1099893000e-04 0.0000e+00 1.0000e+00
       50  1    1    2    0    0 +4.9850468834e-03 -1.9657919178e-02 +6.3167220676e+00 6.3167565966e+00 4.9935713700e-03 0.0000e+00 0.0000e+00
       11  1    1    2    0    0 -7.9607952240e-03 +1.9423482003e-02 +4.6002797267e-01 4.6050694096e-01 5.1099893000e-04 0.0000e+00 1.0000e+00
<vert_displacement>
145.40243069204436
</vert_displacement>
</event>
<event>
 4   1200 +8.6263000e+09 1.65942100e-02 7.81665300e-03            nan
       50 -1    0    0    0    0 +3.6941395603e-02 +3.9200189661e-02 +2.3478398568e+01 2.3478460886e+01 4.9935713700e-03 0.0000e+00 0.0000e+00
       11 -1    0    0    0    0 -3.4936863270e-18 -3.7073089524e-18 -2.2204402058e-15 5.1100000000e-04 5.1099893000e-04 0.0000e+00 1.0000e+00
       50  1    1    2    0    0 +3.8301854162e-02 +2.3058736218e-02 +2.3230761168e+01 2.3230804724e+01 4.9935713700e-03 0.0000e+00 0.0000e+00
       11  1    1    2    0    0 -1.3604585596e-03 +1.6141453443e-02 +2.4763739948e-01 2.4816716163e-01 5.1099893000e-04 0.0000e+00 1.0000e+00
<vert_displacement>
240.22763111892553
</vert_displacement>
</event>
<event>
 4   1200 +8.6263000e+09 1.21323300e-02 7.81665300e-03            nan
       50 -1    0    0    0    0 -4.1611063304e-03 -6.3277300194e-03 +2.5305967495e+00 2.5306130086e+00 4.9935713700e-03 0.0000e+00 0.0000e+00
       11 -1    0    0    0    0 -3.2517640854e-19 -4.9449073360e-19 +1.9775759068e-16 5.1100000000e-04 5.1099893000e-04 0.0000e+00 1.0000e+00
       50  1    1    2    0    0 -1.3349908382e-02 -1.8402412023e-04 +2.4046145945e+00 2.4046568441e+00 4.9935713700e-03 0.0000e+00 0.0000e+00
       11  1    1    2    0    0 +9.1888020517e-03 -6.1437058992e-03 +1.2598215502e-01 1.2646716455e-01 5.1099893000e-04 0.0000e+00 1.0000e+00
<vert_displacement>
312.65580593138134
</vert_displacement>
</event>
<event>
 4   1200 +8.6263000e+09 1.10582600e-02 7.81665300e-03            nan
       50 -1    0    0    0    0 +7.0415496385e-02 -1.1944224674e-02 +2.1531348019e+01 2.1531467053e+01 4.9935713700e-03 0.0000e+00 0.0000e+00
       11 -1    0    0    0    0 +2.3600337931e-18 -4.0032060144e-19 +7.2164099589e-16 5.1100000000e-04 5.1099893000e-04 0.0000e+00 1.0000e+00
       50  1    1    2    0    0 +6.1136495850e-02 -7.7731848221e-03 +2.1435698467e+01 2.1435787642e+01 4.9935713700e-03 0.0000e+00 0.0000e+00
       11  1    1    2    0    0 +9.2790005349e-03 -4.1710398521e-03 +9.5649551912e-02 9.6190411816e-02 5.1099893000e-04 0.0000e+00 1.0000e+00
<vert_displacement>
194.08109269171547
</vert_displacement>
</event>
<event>
 4   1200 +8.6263000e+09 8.39969200e-03 7.81665300e-03            nan
       50 -1    0    0    0    0 -1.7031649954e-02 +2.1543967340e-02 +8.4881411514e+00 8.4881870479e+00 4.9935713700e-03 0.0000e+00 0.0000e+00
       11 -1    0    0    0    0 +7.3791777758e-19 -9.3341963595e-19 -3.6775945202e-16 5.1100000000e-04 5.1099893000e-04 0.0000e+00 1.0000e+00
       50  1    1    2    0    0 -1.0379680689e-02 +1.9830073610e-02 +8.4432809117e+00 8.4433120550e+00 4.9935713700e-03 0.0000e+00 0.0000e+00
       11  1    1    2    0    0 -6.6519692649e-03 +1.7138937302e-03 +4.4860239695e-02 4.5385992907e-02 5.1099893000e-04 0.0000e+00 1.0000e+00
<vert_displacement>
434.13669603311320
</vert_displacement>
</event>
<event>
 4   1200 +8.6263000e+09 1.59354600e-02 7.81665300e-03            nan
       50 -1    0    0    0    0 +8.1701958345e-02 +5.2409285444e-03 +2.7361950663e+01 2.7362073600e+01 4.9935713700e-03 0.0000e+00 0.0000e+00
       11 -1    0    0    0    0 -6.3815243477e-18 -4.0935509733e-19 -2.1371697557e-15 5.1100000000e-04 5.1099893000e-04 0.0000e+00 -1.0000e+00
       50  1    1    2    0    0 +8.0810406059e-02 -9.9336450106e-03 +2.7136010066e+01 2.7136132669e+01 4.9935713700e-03 0.0000e+00 0.0000e+00
       11  1    1    2    0    0 +8.9155228621e-04 +1.5174573555e-02 +2.2594059742e-01 2.2645193139e-01 5.1099893000e-04 0.0000e+00 -1.0000e+00
<vert_displacement>
81.571921769913587
</vert_displacement>
</event>
<event>
 4   1200 +8.6263000e+09 2.34063500e-02 7.81665300e-03            nan
       50 -1    0    0    0    0 +4.2651702630e-03 -5.1021037173e-03 +2.5452327999e+00 2.5452463858e+00 4.9935713700e-03 0.0000e+00 0.0000e+00
       11 -1    0    0    0    0 +0.0000000000e+00 +0.0000000000e+00 +0.0000000000e+00 5.1100000000e-04 5.1099893000e-04 0.0000e+00 1.0000e+00
       50  1    1    2    0    0 +9.5185090240e-03 +1.8268038231e-02 +1.8313559946e+00 1.8314786479e+00 4.9935713700e-03 0.0000e+00 0.0000e+00
       11  1    1    2    0    0 -5.2533387610e-03 -2.3370141948e-02 +7.1387680534e-01 7.1427873791e-01 5.1099893000e-04 0.0000e+00 1.0000e+00
<vert_displacement>
255.64915773342724
</vert_displacement>
</event>
<event>
 4   1200 +8.6263000e+09 4.77918200e-02 7.81665300e-03            nan
       50 -1    0    0    0    0 -4.3127019247e-02 +4.3375950219e-02 +1.8886794296e+01 1.8886894004e+01 4.9935713700e-03 0.0000e+00 0.0000e+00
       11 -1    0    0    0    0 +4.3730882745e-18 -4.3983299242e-18 -1.9151246740e-15 5.1100000000e-04 5.1099893000e-04 0.0000e+00 1.0000e+00
       50  1    1    2    0    0 -7.4852645351e-02 +6.6622991357e-02 +1.6329417015e+01 1.6329725243e+01 4.9935713700e-03 0.0000e+00 0.0000e+00
       11  1    1    2    0    0 +3.1725626104e-02 -2.3247041138e-02 +2.5573772808e+00 2.5576797606e+00 5.1099893000e-04 0.0000e+00 1.0000e+00
<vert_displacement>
97.961902267813599
</vert_displacement>
</event>
<event>
 4   1200 +8.6263000e+09 1.82726500e-02 7.81665300e-03            nan
       50 -1    0    0    0    0 -2.7513909807e-02 +7.4507052886e-02 +3.9114114447e+01 3.9114195405e+01 4.9935713700e-03 0.0000e+00 0.0000e+00
       11 -1    0    0    0    0 +1.4642978127e-19 -3.9652857531e-19 -2.0816638795e-16 5.1100000000e-04 5.1099893000e-04 0.0000e+00 1.0000e+00
       50  1    1    2    0    0 -1.1902376007e-02 +6.5448522053e-02 +3.8809459988e+01 3.8809517320e+01 4.9935713700e-03 0.0000e+00 0.0000e+00
       11  1    1    2    0    0 -1.5611533800e-02 +9.0585308325e-03 +3.0465445921e-01 3.0518908500e-01 5.1099893000e-04 0.0000e+00 1.0000e+00
<vert_displacement>
57.343191410895408
</vert_displacement>
</event>
<event>
 4   1200 +8.6263000e+09 3.00767000e-02 7.81665300e-03            nan
       50 -1    0    0    0    0 +3.7802456420e-02 -4.1941537971e-02 +2.2039024778e+01 2.2039097672e+01 4.9935713700e-03 0.0000e+00 0.0000e+00
       11 -1    0    0    0    0 +7.3791809413e-19 -8.1871451475e-19 +4.3021001016e-16 5.1100000000e-04 5.1099893000e-04 0.0000e+00 1.0000e+00
       50  1    1    2    0    0 +5.6500290740e-02 -1.8551233729e-02 +2.1141703220e+01 2.1141787446e+01 4.9935713700e-03 0.0000e+00 0.0000e+00
       11  1    1    2    0    0 -1.8697834320e-02 -2.3390304242e-02 +8.9732155814e-01 8.9782122673e-01 5.1099893000e-04 0.0000e+00 1.0000e+00
<vert_displacement>
285.10053143978541
</vert_displacement>
</event>
<event>
 4   1200 +8.6263000e+09 2.16306000e-02 7.81665300e-03            nan
       50 -1    0    0    0    0 -5.4640322637e-02 -3.5349174183e-02 +2.2177941943e+01 2.2178037985e+01 4.9935713700e-03 0.0000e+00 0.0000e+00
       11 -1    0    0    0    0 -2.0172624178e-18 -1.3050537980e-18 +8.1878595562e-16 5.1100000000e-04 5.1099893000e-04 0.0000e+00 1.0000e+00
       50  1    1    2    0    0 -7.4129291885e-02 -3.0231970149e-02 +2.1735649776e+01 2.1735797783e+01 4.9935713700e-03 0.0000e+00 0.0000e+00
       11  1    1    2    0    0 +1.9488969248e-02 -5.1172040344e-03 +4.4229216642e-01 4.4275120248e-01 5.1099893000e-04 0.0000e+00 1.0000e+00
<vert_displacement>
478.29485218113678
</vert_displacement>
</event>
<event>
 4   1200 +8.6263000e+09 5.45294900e-03 7.81665300e-03            nan
       50 -1    0    0    0    0 +1.8735561043e-02 +1.6173422939e-02 +6.3409987475e+00 6.3410490183e+00 4.9935713700e-03 0.0000e+00 0.0000e+00
       11 -1    0    0    0    0 +5.9455765081e-19 +5.1325030117e-19 +2.0122639031e-16 5.1100000000e-04 5.1099893000e-04 0.0000e+00 1.0000e+00
       50  1    1    2    0    0 +1.6835590698e-02 +1.5047203643e-02 +6.3363077238e+00 6.3363499242e+00 4.9935713700e-03 0.0000e+00 0.0000e+00
       11  1    1    2    0    0 +1.8999703447e-03 +1.1262192954e-03 +4.6910236909e-03 5.2100940862e-03 5.1099893000e-04 0.0000e+00 1.0000e+00
<vert_displacement>
125.10287694630426
</vert_displacement>
</event>
<event>
 4   1200 +8.6263000e+09 3.57645200e-02 7.81665300e-03            nan
       50 -1    0    0    0    0 -1.1048778564e-02 +1.3814825496e-02 +9.1804221601e+00 9.1804405612e+00 4.9935713700e-03 0.0000e+00 0.0000e+00
       11 -1    0    0    0    0 -9.1026439561e-19 +1.1381478692e-18 +7.5633803142e-16 5.1100000000e-04 5.1099893000e-04 0.0000e+00 1.0000e+00
       50  1    1    2    0    0 +1.8362462493e-02 +3.3740535469e-02 +7.7203720170e+00 7.7204691969e+00 4.9935713700e-03 0.0000e+00 0.0000e+00
       11  1    1    2    0    0 -2.9411241058e-02 -1.9925709974e-02 +1.4600501431e+00 1.4604823644e+00 5.1099893000e-04 0.0000e+00 1.0000e+00
<vert_displacement>
427.74750725400605
</vert_displacement>
</event>
<event>
 4   1200 +8.6263000e+09 2.38766200e-02 7.81665300e-03            nan
       50 -1    0    0    0    0 -1.8270449184e-02 +1.4268333089e-02 +1.4334772740e+01 1.4334792355e+01 4.9935713700e-03 0.0000e+00 0.0000e+00
       11 -1    0    0    0    0 -1.7334214373e-18 +1.3537179192e-18 +1.3600214268e-15 5.1100000000e-04 5.1099893000e-04 0.0000e+00 1.0000e+00
       50  1    1    2    0    0 -2.7428482255e-02 -7.4460892051e-03 +1.3779819938e+01 1.3779850152e+01 4.9935713700e-03 0.0000e+00 0.0000e+00
       11  1    1    2    0    0 +9.1580330713e-03 +2.1714422294e-02 +5.5495280275e-01 5.5545320244e-01 5.1099893000e-04 0.0000e+00 1.0000e+00
<vert_displacement>
74.303269689030046
</vert_displacement>
</event>
<event>
 4   1200 +8.6263000e+09 1.41998800e-02 7.81665300e-03            nan
       50 -1    0    0    0    0 +1.9363637485e-03 -1.9708781594e-03 +2.5261765649e+00 2.5261830113e+00 4.9935713700e-03 0.0000e+00 0.0000e+00
       11 -1    0    0    0    0 +1.6222323894e-19 -1.6511476154e-19 +2.1163613749e-16 5.1100000000e-04 5.1099893000e-04 0.0000e+00 1.0000e+00
       50  1    1    2    0    0 +1.5018151242e-02 -3.1663628352e-03 +2.3392742956e+00 2.3393299760e+00 4.9935713700e-03 0.0000e+00 0.0000e+00
       11  1    1    2    0    0 -1.3081787493e-02 +1.1954846757e-03 +1.8690226921e-01 1.8736403524e-01 5.1099893000e-04 0.0000e+00 1.0000e+00
<vert_displacement>
79.748603716932365
</vert_displacement>
</event>
<event>
 4   1200 +8.6263000e+09 8.27462400e-03 7.81665300e-03            nan
       50 -1    0    0    0    0 +1.1314879575e-02 -1.3249780609e-02 +7.3806668393e+00 7.3806890946e+00 4.9935713700e-03 0.0000e+00 0.0000e+00
       11 -1    0    0    0    0 -1.5956389546e-19 +1.8685012014e-19 -1.0408311853e-16 5.1100000000e-04 5.1099893000e-04 0.0000e+00 1.0000e+00
       50  1    1    2    0    0 +4.9995230039e-03 -1.5288341053e-02 +7.3378236881e+00 7.3378430170e+00 4.9935713700e-03 0.0000e+00 0.0000e+00
       11  1    1    2    0    0 +6.3153565706e-03 +2.0385604439e-03 +4.2843151180e-02 4.3357077625e-02 5.1099893000e-04 0.0000e+00 1.0000e+00
<vert_displacement>
117.17632281211323
</vert_displacement>
</event>
<event>
 4   1200 +8.6263000e+09 6.47949300e-03 7.81665300e-03            nan
       50 -1    0    0    0    0 -1.6271511260e-02 -1.0648199236e-02 +4.7065999261e+00 4.7066427468e+00 4.9935713700e-03 0.0000e+00 0.0000e+00
       11 -1    0    0    0    0 -7.6763916811e-19 -5.0234883980e-19 +2.2204270975e-16 5.1100000000e-04 5.1099893000e-04 0.0000e+00 1.0000e+00
       50  1    1    2    0    0 -1.7441333753e-02 -1.4552483486e-02 +4.6898441275e+00 4.6899017955e+00 4.9935713700e-03 0.0000e+00 0.0000e+00
       11  1    1    2    0    0 +1.1698224933e-03 +3.9042842504e-03 +1.6755798534e-02 1.7251951327e-02 5.1099893000e-04 0.0000e+00 1.0000e+00
<vert_displacement>
59.163064699627618
</vert_displacement>
</event>
<event>
 4   1200 +8.6263000e+09 1.29528800e-02 7.81665300e-03            nan
       50 -1    0    0    0    0 +2.2387070394e-02 +7.8139681763e-03 +6.8672006737e+00 6.8672434257e+00 4.9935713700e-03 0.0000e+00 0.0000e+00
       11 -1    0    0    0    0 -2.4656514429e-18 -8.6060934146e-19 -7.5633492690e-16 5.1100000000e-04 5.1099893000e-04 0.0000e+00 1.0000e+00
       50  1    1    2    0    0 +1.6430123283e-02 -2.9637037360e-03 +6.7244764660e+00 6.7244990452e+00 4.9935713700e-03 0.0000e+00 0.0000e+00
       11  1    1    2    0    0 +5.9569471109e-03 +1.0777671912e-02 +1.4272420772e-01 1.4325538042e-01 5.1099893000e-04 0.0000e+00 1.0000e+00
<vert_displacement>
479.34570549822030
</vert_displacement>
</event>
<event>
 4   1200 +8.6263000e+09 2.35009200e-02 7.81665300e-03            nan
       50 -1    0    0    0    0 +3.9779813491e-03 -1.1579154688e-02 +7.5967674164e+00 7.5967789237e+00 4.9935713700e-03 0.0000e+00 0.0000e+00
       11 -1    0    0    0    0 -3.2338033170e-19 +9.4129925585e-19 -6.1756075541e-16 5.1100000000e-04 5.1099893000e-04 0.0000e+00 1.0000e+00
       50  1    1    2    0    0 -1.2829372111e-02 +5.2256930146e-03 +7.0397898044e+00 7.0398052051e+00 4.9935713700e-03 0.0000e+00 0.0000e+00
       11  1    1    2    0    0 +1.6807353460e-02 -1.6804847702e-02 +5.5697761196e-01 5.5748471852e-01 5.1099893000e-04 0.0000e+00 1.0000e+00
<vert_displacement>
171.62720796926968
</vert_displacement>
</event>
<event>
 4   1200 +8.6263000e+09 8.36042100e-03 7.81665300e-03            nan
       50 -1    0    0    0    0 +6.2780217022e-03 +1.1684319453e-02 +7.7658349602e+00 7.7658478933e+00 4.9935713700e-03 0.0000e+00 0.0000e+00
       11 -1    0    0    0    0 -3.9266510606e-19 -7.3080737133e-19 -4.8572186478e-16 5.1100000000e-04 5.1099893000e-04 0.0000e+00 1.0000e+00
       50  1    1    2    0    0 +1.2441558710e-02 +9.0624640562e-03 +7.7215850136e+00 7.7216019697e+00 4.9935713700e-03 0.0000e+00 0.0000e+00
       11  1    1    2    0    0 -6.1635370079e-03 +2.6218553970e-03 +4.4249946637e-02 4.4756923615e-02 5.1099893000e-04 0.0000e+00 1.0000e+00
<vert_displacement>
335.65954651006587
</vert_displacement>
</event>
<event>
 4   1200 +8.6263000e+09 5.33663700e-03 7.81665300e-03            nan
       50 -1    0    0    0    0 -1.3998216227e-02 -3.2242336660e-03 +9.6422574795e+00 9.6422694726e+00 4.9935713700e-03 0.0000e+00 0.0000e+00
       11 -1    0    0    0    0 +1.3095650947e-19 +3.0163442239e-20 -9.0205520649e-17 5.1100000000e-04 5.1099893000e-04 0.0000e+00 1.0000e+00
       50  1    1    2    0    0 -1.5440867615e-02 -2.0196872744e-03 +9.6387866968e+00 9.6388005696e+00 4.9935713700e-03 0.0000e+00 0.0000e+00
       11  1    1    2    0    0 +1.4426513875e-03 -1.2045463916e-03 +3.4707826901e-03 3.9799029415e-03 5.1099893000e-04 0.0000e+00 1.0000e+00
<vert_displacement>
97.921785598009905
</vert_displacement>
</event>
<event>
 4   1200 +8.6263000e+09 1.99986300e-02 7.81665300e-03            nan
       50 -1    0    0    0    0 +9.9441225686e-04 -4.4095607033e-03 +1.8436702619e+00 1.8436825658e+00 4.9935713700e-03 0.0000e+00 0.0000e+00
       11 -1    0    0    0    0 +9.9178613761e-20 -4.3979156012e-19 +1.8388013578e-16 5.1100000000e-04 5.1099893000e-04 0.0000e+00 1.0000e+00
       50  1    1    2    0    0 +1.9687221612e-02 -7.0925561887e-03 +1.3337348628e+00 1.3339083593e+00 4.9935713700e-03 0.0000e+00 0.0000e+00
       11  1    1    2    0    0 -1.8692809355e-02 +2.6829954854e-03 +5.0993539915e-01 5.1028520654e-01 5.1099893000e-04 0.0000e+00 1.0000e+00
<vert_displacement>
158.47609885515027
</vert_displacement>
</event>
<event>
 4   1200 +8.6263000e+09 1.69521600e-02 7.81665300e-03            nan
       50 -1    0    0    0    0 -5.4997783327e-02 -5.2696050912e-02 +2.3626579385e+01 2.3626702690e+01 4.9935713700e-03 0.0000e+00 0.0000e+00
       11 -1    0    0    0    0 -2.7781825117e-18 -2.6619117757e-18 +1.1934835494e-15 5.1100000000e-04 5.1099893000e-04 0.0000e+00 1.0000e+00
       50  1    1    2    0    0 -5.9964220593e-02 -6.7328880381e-02 +2.3366881275e+01 2.3367055749e+01 4.9935713700e-03 0.0000e+00 0.0000e+00
       11  1    1    2    0    0 +4.9664372656e-03 +1.4632829469e-02 +2.5969810917e-01 2.6015794092e-01 5.1099893000e-04 0.0000e+00 1.0000e+00
<vert_displacement>
90.888257263078273
</vert_displacement>
</event>
<event>
 4   1200 +8.6263000e+09 1.46337600e-02 7.81665300e-03            nan
       50 -1    0    0    0    0 +3.9635932217e-02 +2.3529841435e-02 +1.1829749527e+01 1.1829840382e+01 4.9935713700e-03 0.0000e+00 0.0000e+00
       11 -1    0    0    0    0 +3.3478267114e-18 +1.9874348165e-18 +9.9919313715e-16 5.1100000000e-04 5.1099893000e-04 0.0000e+00 -1.0000e+00
       50  1    1    2    0    0 +5.2637329772e-02 +2.1316018122e-02 +1.1641564332e+01 1.1641703917e+01 4.9935713700e-03 0.0000e+00 0.0000e+00
       11  1    1    2    0    0 -1.3001397555e-02 +2.2138233140e-03 +1.8818519539e-01 1.8864746549e-01 5.1099893000e-04 0.0000e+00 -1.0000e+00
<vert_displacement>
235.02169142355808
</vert_displacement>
</event>
<event>
 4   1200 +8.6263000e+09 7.23795400e-03 7.81665300e-03            nan
       50 -1    0    0    0    0 +8.5767162175e-03 +1.3946155606e-02 +6.5127472016e+00 6.5127696953e+00 4.9935713700e-03 0.0000e+00 0.0000e+00
       11 -1    0    0    0    0 +1.5534404726e-19 +2.5259693810e-19 +1.1796082363e-16 5.1100000000e-04 5.1099893000e-04 0.0000e+00 1.0000e+00
       50  1    1    2    0    0 +4.4862166902e-03 +1.7206431746e-02 +6.4857699909e+00 6.4857962887e+00 4.9935713700e-03 0.0000e+00 0.0000e+00
       11  1    1    2    0    0 +4.0904995274e-03 -3.2602761403e-03 +2.6977210727e-02 2.7484406587e-02 5.1099893000e-04 0.0000e+00 1.0000e+00
<vert_displacement>
338.75962845825723
</vert_displacement>
</event>
<event>
 4   1200 +8.6263000e+09 4.40792500e-02 7.81665300e-03            nan
       50 -1    0    0    0    0 -3.0164408126e-02 -2.7882967682e-02 +1.6343461616e+01 1.6343514000e+01 4.9935713700e-03 0.0000e+00 0.0000e+00
       11 -1    0    0    0    0 +3.0223979025e-18 +2.7938033024e-18 -1.6375737890e-15 5.1100000000e-04 5.1099893000e-04 0.0000e+00 -1.0000e+00
       50  1    1    2    0    0 -1.0632454883e-02 +1.6754558732e-02 +1.4179884045e+01 1.4179898808e+01 4.9935713700e-03 0.0000e+00 0.0000e+00
       11  1    1    2    0    0 -1.9531953243e-02 -4.4637526414e-02 +2.1635775712e+00 2.1641261917e+00 5.1099893000e-04 0.0000e+00 -1.0000e+00
<vert_displacement>
102.20413899058464
</vert_displacement>
</event>
<event>
 4   1200 +8.6263000e+09 1.81397100e-02 7.81665300e-03            nan
       50 -1    0    0    0    0 -1.0504190511e-03 +4.6844367838e-02 +2.8901665339e+01 2.8901703753e+01 4.9935713700e-03 0.0000e+00 0.0000e+00
       11 -1    0    0    0    0 +7.7674794832e-20 -3.4639762647e-18 -2.1371765138e-15 5.1100000000e-04 5.1099893000e-04 0.0000e+00 1.0000e+00
       50  1    1    2    0    0 -1.0298399068e-02 +6.1134845570e-02 +2.8600938209e+01 2.8601005837e+01 4.9935713700e-03 0.0000e+00 0.0000e+00
       11  1    1    2    0    0 +9.2479800174e-03 -1.4290477732e-02 +3.0072713088e-01 3.0120891629e-01 5.1099893000e-04 0.0000e+00 1.0000e+00
<vert_displacement>
347.06483198476360
</vert_displacement>
</event>
<event>
 4   1200 +8.6263000e+09 1.11975600e-02 7.81665300e-03            nan
       50 -1    0    0    0    0 +3.7755967539e-02 -1.7763302856e-03 +1.2891447812e+01 1.2891504191e+01 4.9935713700e-03 0.0000e+00 0.0000e+00
       11 -1    0    0    0    0 +2.0322273396e-19 -9.5611560394e-21 +6.9388640786e-17 5.1100000000e-04 5.1099893000e-04 0.0000e+00 1.0000e+00
       50  1    1    2    0    0 +3.7866047869e-02 -1.1777143725e-02 +1.2792391980e+01 1.2792454418e+01 4.9935713700e-03 0.0000e+00 0.0000e+00
       11  1    1    2    0    0 -1.1008033019e-04 +1.0000813440e-02 +9.9055832022e-02 9.9560772218e-02 5.1099893000e-04 0.0000e+00 1.0000e+00
<vert_displacement>
171.02042334324889
</vert_displacement>
</event>
<event>
 4   1200 +8.6263000e+09 2.00394300e-02 7.81665300e-03            nan
       50 -1    0    0    0    0 +9.2024411915e-03 -7.2759686852e-03 +2.2445489231e+01 2.2445492852e+01 4.9935713700e-03 0.0000e+00 0.0000e+00
       11 -1    0    0    0    0 -7.2259987035e-19 +5.7132818555e-19 -1.7624788109e-15 5.1100000000e-04 5.1099893000e-04 0.0000e+00 1.0000e+00
       50  1    1    2    0    0 -5.8304074000e-04 +9.6940064977e-03 +2.2070689454e+01 2.2070692156e+01 4.9935713700e-03 0.0000e+00 0.0000e+00
       11  1    1    2    0    0 +9.7854819315e-03 -1.6969975183e-02 +3.7479977672e-01 3.7531169641e-01 5.1099893000e-04 0.0000e+00 1.0000e+00
<vert_displacement>
164.16492320244652
</vert_displacement>
</event>
<event>
 4   1200 +8.6263000e+09 1.31484400e-02 7.81665300e-03            nan
       50 -1    0    0    0    0 -1.5601346018e-02 +1.2790451163e-02 +1.0654325071e+01 1.0654345341e+01 4.9935713700e-03 0.0000e+00 0.0000e+00
       11 -1    0    0    0    0 -5.5884102925e-19 +4.5815462874e-19 +3.8163848055e-16 5.1100000000e-04 5.1099893000e-04 0.0000e+00 1.0000e+00
       50  1    1    2    0    0 -5.8739727620e-03 +2.0194440295e-02 +1.0507535032e+01 1.0507557267e+01 4.9935713700e-03 0.0000e+00 0.0000e+00
       11  1    1    2    0    0 -9.7273732559e-03 -7.4039891323e-03 +1.4679003879e-01 1.4729907486e-01 5.1099893000e-04 0.0000e+00 1.0000e+00
<vert_displacement>
124.07812367964110
</vert_displacement>
</event>
<event>
 4   1200 +8.6263000e+09 9.46609000e-03 7.81665300e-03            nan
       50 -1    0    0    0    0 +2.2850168677e-02 +2.5624516204e-03 +9.2026067325e+00 9.2026368126e+00 4.9935713700e-03 0.0000e+00 0.0000e+00
       11 -1    0    0    0    0 +3.6181513808e-19 +4.0574483276e-20 +1.4571631714e-16 5.1100000000e-04 5.1099893000e-04 0.0000e+00 1.0000e+00
       50  1    1    2    0    0 +2.8227779857e-02 -3.2884242263e-03 +9.1388698942e+00 9.1389154445e+00 4.9935713700e-03 0.0000e+00 0.0000e+00
       11  1    1    2    0    0 -5.3776111796e-03 +5.8508758467e-03 +6.3736838276e-02 6.4232368192e-02 5.1099893000e-04 0.0000e+00 1.0000e+00
<vert_displacement>
159.53985481904454
</vert_displacement>
</event>
<event>
 4   1200 +8.6263000e+09 3.04732800e-02 7.81665300e-03            nan
       50 -1    0    0    0    0 -4.5547843452e-02 +2.3646032781e-02 +2.2355712969e+01 2.2355772432e+01 4.9935713700e-03 0.0000e+00 0.0000e+00
       11 -1    0    0    0    0 +5.9376922935e-19 -3.0825359879e-19 -2.9143277607e-16 5.1100000000e-04 5.1099893000e-04 0.0000e+00 1.0000e+00
       50  1    1    2    0    0 -6.3212232447e-02 -1.7101988122e-04 +2.1433352729e+01 2.1433446526e+01 4.9935713700e-03 0.0000e+00 0.0000e+00
       11  1    1    2    0    0 +1.7664388995e-02 +2.3817052662e-02 +9.2236023949e-01 9.2283690604e-01 5.1099893000e-04 0.0000e+00 1.0000e+00
<vert_displacement>
409.32179061189737
</vert_displacement>
</event>
<event>
 4   1200 +8.6263000e+09 1.66683500e-02 7.81665300e-03            nan
       50 -1    0    0    0    0 +3.2344936982e-02 +2.5307419190e-02 +1.1627718557e+01 1.1627792157e+01 4.9935713700e-03 0.0000e+00 0.0000e+00
       11 -1    0    0    0    0 +8.2998031437e-19 +6.4939559930e-19 +2.9837057680e-16 5.1100000000e-04 5.1099893000e-04 0.0000e+00 -1.0000e+00
       50  1    1    2    0    0 +2.2201504037e-02 +3.7554856255e-02 +1.1374738131e+01 1.1374822889e+01 4.9935713700e-03 0.0000e+00 0.0000e+00
       11  1    1    2    0    0 +1.0143432945e-02 -1.2247437064e-02 +2.5298042667e-01 2.5348026816e-01 5.1099893000e-04 0.0000e+00 -1.0000e+00
<vert_displacement>
148.78258523751282
</vert_displacement>
</event>
<event>
 4   1200 +8.6263000e+09 2.73537700e-02 7.81665300e-03            nan
       50 -1    0    0    0    0 -2.5120698901e-04 -1.2617835121e-02 +4.8606913668e+00 4.8607103156e+00 4.9935713700e-03 0.0000e+00 0.0000e+00
       11 -1    0    0    0    0 +5.0205406862e-21 +2.5217592412e-19 -9.7144187215e-17 5.1100000000e-04 5.1099893000e-04 0.0000e+00 1.0000e+00
       50  1    1    2    0    0 -1.2432152605e-02 -3.4337195209e-02 +3.9995257578e+00 3.9996955915e+00 4.9935713700e-03 0.0000e+00 0.0000e+00
       11  1    1    2    0    0 +1.2180945616e-02 +2.1719360088e-02 +8.6116560896e-01 8.6152572406e-01 5.1099893000e-04 0.0000e+00 1.0000e+00
<vert_displacement>
92.507915592754742
</vert_displacement>
</event>
<event>
 4   1200 +8.6263000e+09 1.14655600e-02 7.81665300e-03            nan
       50 -1    0    0    0    0 +1.0055700189e-02 -2.4342580715e-03 +1.7548549882e+01 1.7548553642e+01 4.9935713700e-03 0.0000e+00 0.0000e+00
       11 -1    0    0    0    0 -1.7494999323e-19 +4.2351444964e-20 -3.0531127871e-16 5.1100000000e-04 5.1099893000e-04 0.0000e+00 1.0000e+00
       50  1    1    2    0    0 +1.3165303695e-02 +7.4025299948e-03 +1.7443688637e+01 1.7443695890e+01 4.9935713700e-03 0.0000e+00 0.0000e+00
       11  1    1    2    0    0 -3.1096035065e-03 -9.8367880664e-03 +1.0486124518e-01 1.0536875198e-01 5.1099893000e-04 0.0000e+00 1.0000e+00
<vert_displacement>
147.56428779808314
</vert_displacement>
</event>
<event>
 4   1200 +8.6263000e+09 1.51965100e-02 7.81665300e-03            nan
       50 -1    0    0    0    0 +3.1202154023e-02 -8.5796810644e-03 +9.6285280822e+00 9.6285837562e+00 4.9935713700e-03 0.0000e+00 0.0000e+00
       11 -1    0    0    0    0 +1.9787691983e-18 -5.4410373748e-19 +6.1061921494e-16 5.1100000000e-04 5.1099893000e-04 0.0000e+00 1.0000e+00
       50  1    1    2    0    0 +4.4299146423e-02 -4.3299021553e-03 +9.4224958546e+00 9.4226023066e+00 4.9935713700e-03 0.0000e+00 0.0000e+00
       11  1    1    2    0    0 -1.3096992399e-02 -4.2497789091e-03 +2.0603222763e-01 2.0649244967e-01 5.1099893000e-04 0.0000e+00 1.0000e+00
<vert_displacement>
309.39256046241820
</vert_displacement>
</event>
<event>
 4   1200 +8.6263000e+09 1.05373000e-02 7.81665300e-03            nan
       50 -1    0    0    0    0 -2.3052538756e-02 +9.0313447710e-03 +8.3072271307e+00 8.3072655261e+00 4.9935713700e-03 0.0000e+00 0.0000e+00
       11 -1    0    0    0    0 -1.7522351444e-18 +6.8647708940e-19 +6.3143654088e-16 5.1100000000e-04 5.1099893000e-04 0.0000e+00 1.0000e+00
       50  1    1    2    0    0 -2.7456002390e-02 +1.6974462700e-02 +8.2220802362e+00 8.2221451162e+00 4.9935713700e-03 0.0000e+00 0.0000e+00
       11  1    1    2    0    0 +4.4034636336e-03 -7.9431179290e-03 +8.5146894454e-02 8.5631409947e-02 5.1099893000e-04 0.0000e+00 1.0000e+00
<vert_displacement>
390.38894108207006
</vert_displacement>
</event>
<event>
 4   1200 +8.6263000e+09 2.08632300e-02 7.81665300e-03            nan
       50 -1    0    0    0    0 -1.3097003030e-02 -8.1955128289e-03 +1.1777767176e+01 1.1777778368e+01 4.9935713700e-03 0.0000e+00 0.0000e+00
       11 -1    0    0    0    0 -1.5972363379e-18 -9.9947834387e-19 +1.4363498023e-15 5.1100000000e-04 5.1099893000e-04 0.0000e+00 1.0000e+00
       50  1    1    2    0    0 -1.5999493855e-02 -2.7881149997e-02 +1.1361484779e+01 1.1361531352e+01 4.9935713700e-03 0.0000e+00 0.0000e+00
       11  1    1    2    0    0 +2.9024908248e-03 +1.9685637168e-02 +4.1628239744e-01 4.1675801649e-01 5.1099893000e-04 0.0000e+00 1.0000e+00
<vert_displacement>
438.39540053418017
</vert_displacement>
</event>
<event>
 4   1200 +8.6263000e+09 6.02967900e-03 7.81665300e-03            nan
       50 -1    0    0    0    0 +5.8437600777e-03 -4.4845234156e-02 +2.3536270681e+01 2.3536314660e+01 4.9935713700e-03 0.0000e+00 0.0000e+00
       11 -1    0    0    0    0 +6.5123235953e-19 -4.9975815682e-18 +2.6228970537e-15 5.1100000000e-04 5.1099893000e-04 0.0000e+00 1.0000e+00
       50  1    1    2    0    0 +8.5092288305e-03 -4.2749868971e-02 +2.3525093020e+01 2.3525133931e+01 4.9935713700e-03 0.0000e+00 0.0000e+00
       11  1    1    2    0    0 -2.6654687528e-03 -2.0953651851e-03 +1.1177661648e-02 1.1691728647e-02 5.1099893000e-04 0.0000e+00 1.0000e+00
<vert_displacement>
360.47909644162002
</vert_displacement>
</event>
<event>
 4   1200 +8.6263000e+09 3.02465300e-02 7.81665300e-03            nan
       50 -1    0    0    0    0 +5.9158746224e-03 +1.0784367807e-02 +4.8299583566e+00 4.8299766006e+00 4.9935713700e-03 0.0000e+00 0.0000e+00
       11 -1    0    0    0    0 -6.5441785332e-19 -1.1929736987e-18 -5.3429309799e-16 5.1100000000e-04 5.1099893000e-04 0.0000e+00 1.0000e+00
       50  1    1    2    0    0 +3.4020875934e-02 +1.2639683676e-02 +3.6875020070e+00 3.6876839845e+00 4.9935713700e-03 0.0000e+00 0.0000e+00
       11  1    1    2    0    0 -2.8105001311e-02 -1.8553158689e-03 +1.1424563496e+00 1.1428036162e+00 5.1099893000e-04 0.0000e+00 1.0000e+00
<vert_displacement>
240.19334124127857
</vert_displacement>
</event>
<event>
 4   1200 +8.6263000e+09 9.39302400e-03 7.81665300e-03            nan
       50 -1    0    0    0    0 -1.5594190455e-02 +1.7616143289e-02 +9.3477579965e+00 9.3477889366e+00 4.9935713700e-03 0.0000e+00 0.0000e+00
       11 -1    0    0    0    0 +1.8405235112e-18 -2.0791669816e-18 -1.1032806364e-15 5.1100000000e-04 5.1099893000e-04 0.0000e+00 -1.0000e+00
       50  1    1    2    0    0 -7.7744612255e-03 +1.5559406820e-02 +9.2854236944e+00 9.2854413281e+00 4.9935713700e-03 0.0000e+00 0.0000e+00
       11  1    1    2    0    0 -7.8197292296e-03 +2.0567364688e-03 +6.2334302070e-02 6.2858608517e-02 5.1099893000e-04 0.0000e+00 -1.0000e+00
<vert_displacement>
68.722242217495747
</vert_displacement>
</event>
<event>
 4   1200 +8.6263000e+09 1.40998700e-02 7.81665300e-03            nan
       50 -1    0    0    0    0 +7.8407740522e-03 +5.2300576208e-03 +2.4482074780e+00 2.4482307127e+00 4.9935713700e-03 0.0000e+00 0.0000e+00
       11 -1    0    0    0    0 -4.5556631952e-19 -3.0387791886e-19 -1.4224627094e-16 5.1100000000e-04 5.1099893000e-04 0.0000e+00 1.0000e+00
       50  1    1    2    0    0 -5.4102890448e-03 +1.1542710871e-03 +2.2641053625e+00 2.2641176276e+00 4.9935713700e-03 0.0000e+00 0.0000e+00
       11  1    1    2    0    0 +1.3251063097e-02 +4.0757865337e-03 +1.8410211558e-01 1.8462408507e-01 5.1099893000e-04 0.0000e+00 1.0000e+00
<vert_displacement>
361.98884271604499
</vert_displacement>
</event>
<event>
 4   1200 +8.6263000e+09 1.73304700e-02 7.81665300e-03            nan
       50 -1    0    0    0    0 +6.8189379080e-02 +2.9511988705e-02 +2.1134824366e+01 2.1134955563e+01 4.9935713700e-03 0.0000e+00 0.0000e+00
       11 -1    0    0    0    0 -3.0894754071e-18 -1.3371079859e-18 -9.5756144127e-16 5.1100000000e-04 5.1099893000e-04 0.0000e+00 1.0000e+00
       50  1    1    2    0    0 +7.0124223087e-02 +1.2775904794e-02 +2.0861821451e+01 2.0861943817e+01 4.9935713700e-03 0.0000e+00 0.0000e+00
       11  1    1    2    0    0 -1.9348440062e-03 +1.6736083911e-02 +2.7300291489e-01 2.7352274637e-01 5.1099893000e-04 0.0000e+00 1.0000e+00
<vert_displacement>
228.80795433220558
</vert_displacement>
</event>
<event>
 4   1200 +8.6263000e+09 1.22998500e-02 7.81665300e-03            nan
       50 -1    0    0    0    0 +2.9385246608e-03 -1.1425927573e-02 +5.7582230405e+00 5.7582372916e+00 4.9935713700e-03 0.0000e+00 0.0000e+00
       11 -1    0    0    0    0 +1.0269000863e-19 -3.9929173189e-19 +2.0122750086e-16 5.1100000000e-04 5.1099893000e-04 0.0000e+00 1.0000e+00
       50  1    1    2    0    0 +1.3884119944e-02 -1.3439517613e-02 +5.6317840045e+00 5.6318193685e+00 4.9935713700e-03 0.0000e+00 0.0000e+00
       11  1    1    2    0    0 -1.0945595283e-02 +2.0135900402e-03 +1.2643903592e-01 1.2692892312e-01 5.1099893000e-04 0.0000e+00 1.0000e+00
<vert_displacement>
358.18160252782513
</vert_displacement>
</event>
<event>
 4   1200 +8.6263000e+09 9.95069800e-03 7.81665300e-03            nan
       50 -1    0    0    0    0 -3.7329308238e-02 +4.7787965725e-02 +2.4524081784e+01 2.4524157262e+01 4.9935713700e-03 0.0000e+00 0.0000e+00
       11 -1    0    0    0    0 -4.6472793853e-19 +5.9493207471e-19 +3.0531039843e-16 5.1100000000e-04 5.1099893000e-04 0.0000e+00 1.0000e+00
       50  1    1    2    0    0 -3.0778491424e-02 +4.1936248713e-02 +2.4451399738e+01 2.4451455581e+01 4.9935713700e-03 0.0000e+00 0.0000e+00
       11  1    1    2    0    0 -6.5508168139e-03 +5.8517170122e-03 +7.2682046057e-02 7.3212681496e-02 5.1099893000e-04 0.0000e+00 1.0000e+00
<vert_displacement>
115.70718493400825
</vert_displacement>
</event>
<event>
 4   1200 +8.6263000e+09 9.62831100e-03 7.81665300e-03            nan
       50 -1    0    0    0    0 +8.8792348734e-02 -1.5497083268e-02 +2.8359310011e+01 2.8359453688e+01 4.9935713700e-03 0.0000e+00 0.0000e+00
       11 -1    0    0    0    0 -2.6504997539e-18 +4.6259633825e-19 -8.4654078057e-16 5.1100000000e-04 5.1099893000e-04 0.0000e+00 1.0000e+00
       50  1    1    2    0    0 +8.4433389261e-02 -8.3517018210e-03 +2.8292860319e+01 2.8292987978e+01 4.9935713700e-03 0.0000e+00 0.0000e+00
       11  1    1    2    0    0 +4.3589594726e-03 -7.1453814473e-03 +6.6449691484e-02 6.6976709549e-02 5.1099893000e-04 0.0000e+00 1.0000e+00
<vert_displacement>
31.209967340195178
</vert_displacement>
</event>
<event>
 4   1200 +8.6263000e+09 9.15319300e-03 7.81665300e-03            nan
       50 -1    0    0    0    0 -1.6363028435e-02 -4.9396919987e-03 +5.4002049041e+00 5.4002342626e+00 4.9935713700e-03 0.0000e+00 0.0000e+00
       11 -1    0    0    0    0 -2.7332846995e-19 -8.2512748872e-20 +9.0205168911e-17 5.1100000000e-04 5.1099893000e-04 0.0000e+00 1.0000e+00
       50  1    1    2    0    0 -2.3677863056e-02 -3.2353039924e-03 +5.3419697128e+00 5.3420255013e+00 4.9935713700e-03 0.0000e+00 0.0000e+00
       11  1    1    2    0    0 +7.3148346218e-03 -1.7043880062e-03 +5.8235191248e-02 5.8719761270e-02 5.1099893000e-04 0.0000e+00 1.0000e+00
<vert_displacement>
270.63228149093555
</vert_displacement>
</event>
<event>
 4   1200 +8.6263000e+09 1.86124000e-02 7.81665300e-03            nan
       50 -1    0    0    0    0 +3.6545771565e-02 +2.9483249166e-02 +1.6344813378e+01 1.6344881589e+01 4.9935713700e-03 0.0000e+00 0.0000e+00
       11 -1    0    0    0    0 -4.9026705066e-18 -3.9552224494e-18 -2.1926814254e-15 5.1100000000e-04 5.1099893000e-04 0.0000e+00 1.0000e+00
       50  1    1    2    0    0 +2.0785846649e-02 +1.9146991817e-02 +1.6023981881e+01 1.6024007580e+01 4.9935713700e-03 0.0000e+00 0.0000e+00
       11  1    1    2    0    0 +1.5759924916e-02 +1.0336257349e-02 +3.2083149759e-01 3.2138500963e-01 5.1099893000e-04 0.0000e+00 1.0000e+00
<vert_displacement>
184.09259588203992
</vert_displacement>
</event>
<event>
 4   1200 +8.6263000e+09 9.51810000e-03 7.81665300e-03            nan
       50 -1    0    0    0    0 +4.0754628119e-02 +2.6529299259e-02 +1.8045341554e+01 1.8045407767e+01 4.9935713700e-03 0.0000e+00 0.0000e+00
       11 -1    0    0    0    0 -5.0147637354e-19 -3.2643695696e-19 -2.2204379869e-16 5.1100000000e-04 5.1099893000e-04 0.0000e+00 -1.0000e+00
       50  1    1    2    0    0 +3.2586758416e-02 +2.7575432434e-02 +1.7980880629e+01 1.7980931995e+01 4.9935713700e-03 0.0000e+00 0.0000e+00
       11  1    1    2    0    0 +8.1678697031e-03 -1.0461331744e-03 +6.4460924872e-02 6.4986771310e-02 5.1099893000e-04 0.0000e+00 -1.0000e+00
<vert_displacement>
126.71954747588603
</vert_displacement>
</event>
<event>
 4   1200 +8.6263000e+09 1.36248500e-02 7.81665300e-03            nan
       50 -1    0    0    0    0 +5.2088768695e-03 +4.4595897482e-03 +2.8316062883e+00 2.8316189941e+00 4.9935713700e-03 0.0000e+00 0.0000e+00
       11 -1    0    0    0    0 -4.4675378580e-20 -3.8248909564e-20 -2.4286057453e-17 5.1100000000e-04 5.1099893000e-04 0.0000e+00 1.0000e+00
       50  1    1    2    0    0 -7.4423295848e-03 +7.0835256430e-03 +2.6643942248e+00 2.6644187144e+00 4.9935713700e-03 0.0000e+00 0.0000e+00
       11  1    1    2    0    0 +1.2651206454e-02 -2.6239358949e-03 +1.6721206347e-01 1.6771127975e-01 5.1099893000e-04 0.0000e+00 1.0000e+00
<vert_displacement>
381.82239432289362
</vert_displacement>
</event>
<event>
 4   1200 +8.6263000e+09 2.36388800e-02 7.81665300e-03            nan
       50 -1    0    0    0    0 +5.2356316502e-03 +2.4212000669e-03 +3.4247294048e+00 3.4247379032e+00 4.9935713700e-03 0.0000e+00 0.0000e+00
       11 -1    0    0    0    0 -2.7050334091e-19 -1.2509335089e-19 -1.7694154356e-16 5.1100000000e-04 5.1099893000e-04 0.0000e+00 1.0000e+00
       50  1    1    2    0    0 +1.4324735054e-02 -1.8827882018e-02 +2.7800841868e+00 2.7801893296e+00 4.9935713700e-03 0.0000e+00 0.0000e+00
       11  1    1    2    0    0 -9.0891034034e-03 +2.1249082085e-02 +6.4464521799e-01 6.4505957359e-01 5.1099893000e-04 0.0000e+00 1.0000e+00
<vert_displacement>
402.36884806215346
</vert_displacement>
</event>
<event>
 4   1200 +8.6263000e+09 1.09762800e-02 7.81665300e-03            nan
       50 -1    0    0    0    0 +7.9409513170e-02 -5.8505474872e-02 +2.4992124571e+01 2.4992319705e+01 4.9935713700e-03 0.0000e+00 0.0000e+00
       11 -1    0    0    0    0 +3.6598586254e-18 -2.6964246259e-18 +1.1518474176e-15 5.1100000000e-04 5.1099893000e-04 0.0000e+00 -1.0000e+00
       50  1    1    2    0    0 +8.4234716021e-02 -4.9961494628e-02 +2.4898287638e+01 2.4898480754e+01 4.9935713700e-03 0.0000e+00 0.0000e+00
       11  1    1    2    0    0 -4.8252028507e-03 -8.5439802438e-03 +9.3836932960e-02 9.4349951183e-02 5.1099893000e-04 0.0000e+00 -1.0000e+00
<vert_displacement>
497.98083693879312
</vert_displacement>
</event>
<event>
 4   1200 +8.6263000e+09 2.61703200e-02 7.81665300e-03            nan
       50 -1    0    0    0    0 +2.0862187278e-02 +3.4972281028e-02 +2.6905102495e+01 2.6905133776e+01 4.9935713700e-03 0.0000e+00 0.0000e+00
       11 -1    0    0    0    0 -1.8293375777e-19 -3.0666059609e-19 -2.3592212251e-16 5.1100000000e-04 5.1099893000e-04 0.0000e+00 1.0000e+00
       50  1    1    2    0    0 -3.7257968354e-03 +2.5147247591e-02 +2.6243071567e+01 2.6243084355e+01 4.9935713700e-03 0.0000e+00 0.0000e+00
       11  1    1    2    0    0 +2.4587984113e-02 +9.8250334371e-03 +6.6203092764e-01 6.6256042028e-01 5.1099893000e-04 0.0000e+00 1.0000e+00
<vert_displacement>
27.234917036740576
</vert_displacement>
</event>
<event>
 4   1200 +8.6263000e+09 1.71223200e-02 7.81665300e-03            nan
       50 -1    0    0    0    0 +3.3265445075e-02 -6.2275919514e-04 +1.4983924733e+01 1.4983962504e+01 4.9935713700e-03 0.0000e+00 0.0000e+00
       11 -1    0    0    0    0 +1.5096734169e-18 -2.8262450717e-20 +6.8000992620e-16 5.1100000000e-04 5.1099893000e-04 0.0000e+00 1.0000e+00
       50  1    1    2    0    0 +3.8994596485e-02 -1.5720074813e-02 +1.4716663654e+01 1.4716724559e+01 4.9935713700e-03 0.0000e+00 0.0000e+00
       11  1    1    2    0    0 -5.7291514099e-03 +1.5097315617e-02 +2.6726107938e-01 2.6774894544e-01 5.1099893000e-04 0.0000e+00 1.0000e+00
<vert_displacement>
281.64825730622204
</vert_displacement>
</event>
<event>
 4   1200 +8.6263000e+09 5.10275300e-03 7.81665300e-03            nan
       50 -1    0    0    0    0 -9.0475268815e-04 +7.2242448347e-04 +3.6793865403e+00 3.6793901111e+00 4.9935713700e-03 0.0000e+00 0.0000e+00
       11 -1    0    0    0    0 -4.1803320214e-20 +3.3379002250e-20 +1.7000289223e-16 5.1100000000e-04 5.1099893000e-04 0.0000e+00 1.0000e+00
       50  1    1    2    0    0 -1.3208657407e-03 +1.6860388738e-03 +3.6783071777e+00 3.6783111908e+00 4.9935713700e-03 0.0000e+00 0.0000e+00
       11  1    1    2    0    0 +4.1611305260e-04 -9.6361439033e-04 +1.0793626839e-03 1.5899202734e-03 5.1099893000e-04 0.0000e+00 1.0000e+00
<vert_displacement>
114.11206989185372
</vert_displacement>
</event>
<event>
 4   1200 +8.6263000e+09 6.18615600e-03 7.81665300e-03            nan
       50 -1    0    0    0    0 +1.2220685641e-02 -1.7578791745e-02 +8.5672002986e+00 8.5672285047e+00 4.9935713700e-03 0.0000e+00 0.0000e+00
       11 -1    0    0    0    0 +2.2765300068e-19 -3.2746646190e-19 +1.5959406146e-16 5.1100000000e-04 5.1099893000e-04 0.0000e+00 1.0000e+00
       50  1    1    2    0    0 +8.6864812581e-03 -1.8538670662e-02 +8.5541368046e+00 8.5541627612e+00 4.9935713700e-03 0.0000e+00 0.0000e+00
       11  1    1    2    0    0 +3.5342043833e-03 +9.5987891708e-04 +1.3063493985e-02 1.3576743467e-02 5.1099893000e-04 0.0000e+00 1.0000e+00
<vert_displacement>
185.73184190763286
</vert_displacement>
</event>
<event>
 4   1200 +8.6263000e+09 1.77639100e-02 7.81665300e-03            nan
       50 -1    0    0    0    0 +2.4644058404e-02 -9.6063047522e-02 +4.6054382046e+01 4.6054489097e+01 4.9935713700e-03 0.0000e+00 0.0000e+00
       11 -1    0    0    0    0 +1.9233586278e-18 -7.4972915676e-18 +3.5943387085e-15 5.1100000000e-04 5.1099893000e-04 0.0000e+00 1.0000e+00
       50  1    1    2    0    0 +1.8818556142e-02 -1.1154237634e-01 +4.5768205518e+01 4.5768345580e+01 4.9935713700e-03 0.0000e+00 0.0000e+00
       11  1    1    2    0    0 +5.8255022615e-03 +1.5479328814e-02 +2.8617652847e-01 2.8665451796e-01 5.1099893000e-04 0.0000e+00 1.0000e+00
<vert_displacement>
47.276874722877075
</vert_displacement>
</event>
<event>
 4   1200 +8.6263000e+09 1.73221200e-02 7.81665300e-03            nan
       50 -1    0    0    0    0 -9.1109924643e-03 -8.1088730958e-04 +4.3763788761e+00 4.3763912840e+00 4.9935713700e-03 0.0000e+00 0.0000e+00
       11 -1    0    0    0    0 +2.8891498552e-20 +2.5713718481e-21 -1.3877757496e-17 5.1100000000e-04 5.1099893000e-04 0.0000e+00 1.0000e+00
       50  1    1    2    0    0 -2.3513846386e-02 +6.3154134173e-03 +4.0880195351e+00 4.0880950871e+00 4.9935713700e-03 0.0000e+00 0.0000e+00
       11  1    1    2    0    0 +1.4402853922e-02 -7.1263007269e-03 +2.8835934098e-01 2.8880719695e-01 5.1099893000e-04 0.0000e+00 1.0000e+00
<vert_displacement>
4.2523494670103172
</vert_displacement>
</event>
<event>
 4   1200 +8.6263000e+09 6.16852400e-03 7.81665300e-03            nan
       50 -1    0    0    0    0 +4.1902200253e-02 +1.5593479517e-02 +1.6679633665e+01 1.6679694334e+01 4.9935713700e-03 0.0000e+00 0.0000e+00
       11 -1    0    0    0    0 -1.3945336364e-19 -5.1896157157e-20 -5.5510951807e-17 5.1100000000e-04 5.1099893000e-04 0.0000e+00 1.0000e+00
       50  1    1    2    0    0 +3.8960329882e-02 +1.3425310049e-02 +1.6666800121e+01 1.6666851813e+01 4.9935713700e-03 0.0000e+00 0.0000e+00
       11  1    1    2    0    0 +2.9418703701e-03 +2.1681694683e-03 +1.2833543884e-02 1.3353521208e-02 5.1099893000e-04 0.0000e+00 1.0000e+00
<vert_displacement>
308.00000213519360
</vert_displacement>
</event>
<event>
 4   1200 +8.6263000e+09 1.84751900e-02 7.81665300e-03            nan
       50 -1    0    0    0    0 -9.2545002222e-03 -6.2725869425e-03 +1.1028538423e+01 1.1028545220e+01 4.9935713700e-03 0.0000e+00 0.0000e+00
       11 -1    0    0    0    0 +1.1645416594e-20 +7.8931207860e-21 -1.3877780677e-17 5.1100000000e-04 5.1099893000e-04 0.0000e+00 1.0000e+00
       50  1    1    2    0    0 +5.5211676566e-03 +4.2000725424e-03 +1.0709718235e+01 1.0709721646e+01 4.9935713700e-03 0.0000e+00 0.0000e+00
       11  1    1    2    0    0 -1.4775667879e-02 -1.0472659485e-02 +3.1882018798e-01 3.1933457429e-01 5.1099893000e-04 0.0000e+00 1.0000e+00
<vert_displacement>
462.73508602446589
</vert_displacement>
</event>
<event>
 4   1200 +8.6263000e+09 9.26792100e-03 7.81665300e-03            nan
       50 -1    0    0    0    0 -7.1054735561e-02 -4.3521182156e-02 +2.8261819134e+01 2.8261942406e+01 4.9935713700e-03 0.0000e+00 0.0000e+00
       11 -1    0    0    0    0 -3.5239735809e-18 -2.1584415861e-18 +1.4016504768e-15 5.1100000000e-04 5.1099893000e-04 0.0000e+00 1.0000e+00
       50  1    1    2    0    0 -7.3069087873e-02 -3.5927606753e-02 +2.8202051517e+01 2.8202169502e+01 4.9935713700e-03 0.0000e+00 0.0000e+00
       11  1    1    2    0    0 +2.0143523118e-03 -7.5935754025e-03 +5.9767616394e-02 6.0283904087e-02 5.1099893000e-04 0.0000e+00 1.0000e+00
<vert_displacement>
399.11583674721965
</vert_displacement>
</event>
<event>
 4   1200 +8.6263000e+09 8.64682800e-03 7.81665300e-03            nan
       50 -1    0    0    0    0 -1.8075163287e-02 -1.2307291874e-02 +8.0660608705e+00 8.0660920577e+00 4.9935713700e-03 0.0000e+00 0.0000e+00
       11 -1    0    0    0    0 -2.3168379259e-18 -1.5775238168e-18 +1.0338913923e-15 5.1100000000e-04 5.1099893000e-04 0.0000e+00 1.0000e+00
       50  1    1    2    0    0 -1.7870260581e-02 -5.1739105901e-03 +8.0170104480e+00 8.0170335895e+00 4.9935713700e-03 0.0000e+00 0.0000e+00
       11  1    1    2    0    0 -2.0490270601e-04 -7.1333812838e-03 +4.9050422480e-02 4.9569468214e-02 5.1099893000e-04 0.0000e+00 1.0000e+00
<vert_displacement>
286.37615776385411
</vert_displacement>
</event>
<event>
 4   1200 +8.6263000e+09 3.09229300e-02 7.81665300e-03            nan
       50 -1    0    0    0    0 -1.3549397418e-03 +3.2224813539e-02 +1.5048441649e+01 1.5048477042e+01 4.9935713700e-03 0.0000e+00 0.0000e+00
       11 -1    0    0    0    0 +1.1058366227e-19 -2.6300342275e-18 -1.2281814000e-15 5.1100000000e-04 5.1099893000e-04 0.0000e+00 1.0000e+00
       50  1    1    2    0    0 -2.4299612217e-02 +5.0157999763e-02 +1.4073918527e+01 1.4074029769e+01 4.9935713700e-03 0.0000e+00 0.0000e+00
       11  1    1    2    0    0 +2.2944672475e-02 -1.7933186224e-02 +9.7452312219e-01 9.7495827293e-01 5.1099893000e-04 0.0000e+00 1.0000e+00
<vert_displacement>
278.46069517323866
</vert_displacement>
</event>
<event>
 4   1200 +8.6263000e+09 2.18826300e-02 7.81665300e-03            nan
       50 -1    0    0    0    0 +5.3737329049e-02 -3.7309948935e-02 +2.9391080833e+01 2.9391154064e+01 4.9935713700e-03 0.0000e+00 0.0000e+00
       11 -1    0    0    0    0 -1.4970341173e-18 +1.0393941690e-18 -8.1878745239e-16 5.1100000000e-04 5.1099893000e-04 0.0000e+00 1.0000e+00
       50  1    1    2    0    0 +4.6145703956e-02 -5.6939384539e-02 +2.8939989719e+01 2.8940082954e+01 4.9935713700e-03 0.0000e+00 0.0000e+00
       11  1    1    2    0    0 +7.5916250927e-03 +1.9629435605e-02 +4.5109111344e-01 4.5158210910e-01 5.1099893000e-04 0.0000e+00 1.0000e+00
<vert_displacement>
104.26596303441345
</vert_displacement>
</event>
<event>
 4   1200 +8.6263000e+09 1.15546900e-02 7.81665300e-03            nan
       50 -1    0    0    0    0 -5.3744619467e-02 -3.8839089592e-02 +2.5212616560e+01 2.5212704252e+01 4.9935713700e-03 0.0000e+00 0.0000e+00
       11 -1    0    0    0    0 -1.3016328199e-18 -9.4063804359e-19 +6.1062055172e-16 5.1100000000e-04 5.1099893000e-04 0.0000e+00 1.0000e+00
       50  1    1    2    0    0 -6.3689326623e-02 -4.0933530071e-02 +2.5105899770e+01 2.5106014420e+01 4.9935713700e-03 0.0000e+00 0.0000e+00
       11  1    1    2    0    0 +9.9447071560e-03 +2.0944404791e-03 +1.0671679070e-01 1.0720083217e-01 5.1099893000e-04 0.0000e+00 1.0000e+00
<vert_displacement>
2.5399051904256207
</vert_displacement>
</event>
<event>
 4   1200 +8.6263000e+09 8.29704300e-03 7.81665300e-03            nan
       50 -1    0    0    0    0 -2.1610957009e-02 -8.9702550046e-04 +8.6467111972e+00 8.6467396920e+00 4.9935713700e-03 0.0000e+00 0.0000e+00
       11 -1    0    0    0    0 +1.7689359407e-18 +7.3424820883e-20 -7.0776496382e-16 5.1100000000e-04 5.1099893000e-04 0.0000e+00 1.0000e+00
       50  1    1    2    0    0 -2.4851714921e-02 -6.6101901302e-03 +8.6035235619e+00 8.6035634430e+00 4.9935713700e-03 0.0000e+00 0.0000e+00
       11  1    1    2    0    0 +3.2407579124e-03 +5.7131646297e-03 +4.3187635263e-02 4.3687248957e-02 5.1099893000e-04 0.0000e+00 1.0000e+00
<vert_displacement>
492.32177986305254
</vert_displacement>
</event>
<event>
 4   1200 +8.6263000e+09 1.49515100e-02 7.81665300e-03            nan
       50 -1    0    0    0    0 +3.4654679962e-02 -2.1717248751e-02 +1.5722588455e+01 1.5722642438e+01 4.9935713700e-03 0.0000e+00 0.0000e+00
       11 -1    0    0    0    0 -1.2847123816e-18 +8.0509813956e-19 -5.8286511606e-16 5.1100000000e-04 5.1099893000e-04 0.0000e+00 1.0000e+00
       50  1    1    2    0    0 +3.2197431860e-02 -3.5392350424e-02 +1.5525764008e+01 1.5525838536e+01 4.9935713700e-03 0.0000e+00 0.0000e+00
       11  1    1    2    0    0 +2.4572481025e-03 +1.3675101672e-02 +1.9682444662e-01 1.9731490157e-01 5.1099893000e-04 0.0000e+00 1.0000e+00
<vert_displacement>
344.89047976343545
</vert_displacement>
</event>
<event>
 4   1200 +8.6263000e+09 2.99706000e-02 7.81665300e-03            nan
       50 -1    0    0    0    0 +9.4379814069e-04 +6.7129499973e-03 +9.8302382543e+00 9.8302418600e+00 4.9935713700e-03 0.0000e+00 0.0000e+00
       11 -1    0    0    0    0 +1.0392734096e-19 +7.3920366354e-19 +1.0824671916e-15 5.1100000000e-04 5.1099893000e-04 0.0000e+00 -1.0000e+00
       50  1    1    2    0    0 +2.6642275593e-02 +2.0496720307e-02 +8.8844651576e+00 8.8845301508e+00 4.9935713700e-03 0.0000e+00 0.0000e+00
       11  1    1    2    0    0 -2.5698477452e-02 -1.3783770309e-02 +9.4577309667e-01 9.4622270929e-01 5.1099893000e-04 0.0000e+00 -1.0000e+00
<vert_displacement>
268.90266375035134
</vert_displacement>
</event>
<event>
 4   1200 +8.6263000e+09 1.63807900e-02 7.81665300e-03            nan
       50 -1    0    0    0    0 -1.5556249945e-03 -4.2228571025e-03 +3.6922686992e+00 3.6922748185e+00 4.9935713700e-03 0.0000e+00 0.0000e+00
       11 -1    0    0    0    0 +9.3551663999e-20 +2.5395279079e-19 -2.2204443999e-16 5.1100000000e-04 5.1099893000e-04 0.0000e+00 1.0000e+00
       50  1    1    2    0    0 +1.3953716859e-02 -1.4421321793e-03 +3.4362157125e+00 3.4362479749e+00 4.9935713700e-03 0.0000e+00 0.0000e+00
       11  1    1    2    0    0 -1.5509341853e-02 -2.7807249233e-03 +2.5605298666e-01 2.5653784362e-01 5.1099893000e-04 0.0000e+00 1.0000e+00
<vert_displacement>
49.095965136575444
</vert_displacement>
</event>
<event>
 4   1200 +8.6263000e+09 1.24446200e-02 7.81665300e-03            nan
       50 -1    0    0    0    0 +2.8796687483e-02 -7.7705017787e-03 +9.2356784709e+00 9.2357279835e+00 4.9935713700e-03 0.0000e+00 0.0000e+00
       11 -1    0    0    0    0 +1.2981143801e-19 -3.5028334789e-20 +4.1633146313e-17 5.1100000000e-04 5.1099893000e-04 0.0000e+00 1.0000e+00
       50  1    1    2    0    0 +3.9532647749e-02 -5.2378871366e-03 +9.1066984922e+00 9.1067871738e+00 4.9935713700e-03 0.0000e+00 0.0000e+00
       11  1    1    2    0    0 -1.0735960266e-02 -2.5326146421e-03 +1.2897997874e-01 1.2945180963e-01 5.1099893000e-04 0.0000e+00 1.0000e+00
<vert_displacement>
217.13101844705909
</vert_displacement>
</event>
<event>
 4   1200 +8.6263000e+09 6.73863700e-03 7.81665300e-03            nan
       50 -1    0    0    0    0 -3.0702824702e-03 -5.5493506203e-03 +2.8682054795e+00 2.8682168381e+00 4.9935713700e-03 0.0000e+00 0.0000e+00
       11 -1    0    0    0    0 -1.4855499292e-20 -2.6850420119e-20 +1.3877753882e-17 5.1100000000e-04 5.1099893000e-04 0.0000e+00 1.0000e+00
       50  1    1    2    0    0 -5.9449675381e-03 -2.0339603148e-03 +2.8480296286e+00 2.8480409373e+00 4.9935713700e-03 0.0000e+00 0.0000e+00
       11  1    1    2    0    0 +2.8746850679e-03 -3.5153903055e-03 +2.0175850909e-02 2.0686900759e-02 5.1099893000e-04 0.0000e+00 1.0000e+00
<vert_displacement>
238.77091961606328
</vert_displacement>
</event>
<event>
 4   1200 +8.6263000e+09 1.47571300e-02 7.81665300e-03            nan
       50 -1    0    0    0    0 +3.7348393036e-03 +1.8649371326e-02 +1.2257913113e+01 1.2257928886e+01 4.9935713700e-03 0.0000e+00 0.0000e+00
       11 -1    0    0    0    0 -5.7083273512e-20 -2.8503693940e-19 -1.8734990988e-16 5.1100000000e-04 5.1099893000e-04 0.0000e+00 1.0000e+00
       50  1    1    2    0    0 -2.9270263196e-03 +3.0573739697e-02 +1.2066199116e+01 1.2066239239e+01 4.9935713700e-03 0.0000e+00 0.0000e+00
       11  1    1    2    0    0 +6.6618656231e-03 -1.1924368371e-02 +1.9171399753e-01 1.9220064772e-01 5.1099893000e-04 0.0000e+00 1.0000e+00
<vert_displacement>
243.68838497969881
</vert_displacement>
</event>
<event>
 4   1200 +8.6263000e+09 3.25507400e-02 7.81665300e-03            nan
       50 -1    0    0    0    0 +7.5978031971e-03 -1.3999282240e-02 +1.0854759788e+01 1.0854772623e+01 4.9935713700e-03 0.0000e+00 0.0000e+00
       11 -1    0    0    0    0 +4.3226254802e-19 -7.9646251088e-19 +6.1756089257e-16 5.1100000000e-04 5.1099893000e-04 0.0000e+00 1.0000e+00
       50  1    1    2    0    0 +2.3920098720e-02 +1.4693483462e-02 +9.7244209782e+00 9.7244627804e+00 4.9935713700e-03 0.0000e+00 0.0000e+00
       11  1    1    2    0    0 -1.6322295523e-02 -2.8692765703e-02 +1.1303388095e+00 1.1308208424e+00 5.1099893000e-04 0.0000e+00 1.0000e+00
<vert_displacement>
411.36803808083687
</vert_displacement>
</event>
<event>
 4   1200 +8.6263000e+09 1.55398500e-02 7.81665300e-03            nan
       50 -1    0    0    0    0 -1.8090561934e-02 +1.0482348762e-02 +5.5700243567e+00 5.5700658361e+00 4.9935713700e-03 0.0000e+00 0.0000e+00
       11 -1    0    0    0    0 -2.2536275883e-20 +1.3058361839e-20 +6.9388450195e-18 5.1100000000e-04 5.1099893000e-04 0.0000e+00 1.0000e+00
       50  1    1    2    0    0 -1.6878670526e-02 +2.4774348896e-02 +5.3493089204e+00 5.3493952480e+00 4.9935713700e-03 0.0000e+00 0.0000e+00
       11  1    1    2    0    0 -1.2118914080e-03 -1.4292000134e-02 +2.2071543633e-01 2.2118158807e-01 5.1099893000e-04 0.0000e+00 1.0000e+00
<vert_displacement>
140.82860322350041
</vert_displacement>
</event>
<event>
 4   1200 +8.6263000e+09 1.37395600e-02 7.81665300e-03            nan
       50 -1    0    0    0    0 -7.4616596024e-02 -1.0788306477e-01 +4.4896410982e+01 4.4896602883e+01 4.9935713700e-03 0.0000e+00 0.0000e+00
       11 -1    0    0    0    0 -1.6145081332e-19 -2.3343075774e-19 +9.7144100033e-17 5.1100000000e-04 5.1099893000e-04 0.0000e+00 1.0000e+00
       50  1    1    2    0    0 -7.5755359426e-02 -9.4773968588e-02 +4.4735548343e+01 4.4735713155e+01 4.9935713700e-03 0.0000e+00 0.0000e+00
       11  1    1    2    0    0 +1.1387634029e-03 -1.3109096179e-02 +1.6086263924e-01 1.6140072803e-01 5.1099893000e-04 0.0000e+00 1.0000e+00
<vert_displacement>
62.105250188843812
</vert_displacement>
</event>
<event>
 4   1200 +8.6263000e+09 2.48810600e-02 7.81665300e-03            nan
       50 -1    0    0    0    0 +4.1859870300e-02 +3.4243383718e-03 +1.8714976336e+01 1.8715024129e+01 4.9935713700e-03 0.0000e+00 0.0000e+00
       11 -1    0    0    0    0 -8.3809164166e-19 -6.8559920205e-20 -3.7469932726e-16 5.1100000000e-04 5.1099893000e-04 0.0000e+00 1.0000e+00
       50  1    1    2    0    0 +2.6089580680e-02 -1.6332397551e-02 +1.8114352593e+01 1.8114379432e+01 4.9935713700e-03 0.0000e+00 0.0000e+00
       11  1    1    2    0    0 +1.5770289620e-02 +1.9756735923e-02 +6.0062374229e-01 6.0115569662e-01 5.1099893000e-04 0.0000e+00 1.0000e+00
<vert_displacement>
190.03583661071713
</vert_displacement>
</event>
<event>
 4   1200 +8.6263000e+09 6.95008900e-03 7.81665300e-03            nan
       50 -1    0    0    0    0 +4.7817951449e-04 +4.0769330468e-03 +2.0256460379e+00 2.0256563521e+00 4.9935713700e-03 0.0000e+00 0.0000e+00
       11 -1    0    0    0    0 +5.9787394528e-20 +5.0974413823e-19 +2.5326910747e-16 5.1100000000e-04 5.1099893000e-04 0.0000e+00 1.0000e+00
       50  1    1    2    0    0 -1.8931376081e-03 +8.2458885713e-03 +2.0024999211e+00 2.0025240194e+00 4.9935713700e-03 0.0000e+00 0.0000e+00
       11  1    1    2    0    0 +2.3713171226e-03 -4.1689555245e-03 +2.3146116861e-02 2.3643332691e-02 5.1099893000e-04 0.0000e+00 1.0000e+00
<vert_displacement>
420.01867108033463
</vert_displacement>
</event>
<event>
 4   1200 +8.6263000e+09 2.04280400e-02 7.81665300e-03            nan
       50 -1    0    0    0    0 -1.2330025773e-01 +2.1916481577e-02 +3.5497156033e+01 3.5497377292e+01 4.9935713700e-03 0.0000e+00 0.0000e+00
       11 -1    0    0    0    0 +8.7732267248e-18 -1.5594311434e-18 -2.5257416627e-15 5.1100000000e-04 5.1099893000e-04 0.0000e+00 1.0000e+00
       50  1    1    2    0    0 -1.1132434023e-01 +3.8392756524e-02 +3.5109009150e+01 3.5109206992e+01 4.9935713700e-03 0.0000e+00 0.0000e+00
       11  1    1    2    0    0 -1.1975917500e-02 -1.6476274947e-02 +3.8814688235e-01 3.8868130085e-01 5.1099893000e-04 0.0000e+00 1.0000e+00
<vert_displacement>
91.643584817845422
</vert_displacement>
</event>
<event>
 4   1200 +8.6263000e+09 5.52753400e-03 7.81665300e-03            nan
       50 -1    0    0    0    0 +9.2371336816e-02 -7.2189011041e-02 +2.9294809957e+01 2.9295044958e+01 4.9935713700e-03 0.0000e+00 0.0000e+00
       11 -1    0    0    0    0 -5.8198923298e-18 +4.5482969733e-18 -1.8457309989e-15 5.1100000000e-04 5.1099893000e-04 0.0000e+00 1.0000e+00
       50  1    1    2    0    0 +9.2829255664e-02 -7.4497520643e-02 +2.9289304713e+01 2.9289546986e+01 4.9935713700e-03 0.0000e+00 0.0000e+00
       11  1    1    2    0    0 -4.5791884813e-04 +2.3085096019e-03 +5.5052442310e-03 6.0089716427e-03 5.1099893000e-04 0.0000e+00 1.0000e+00
<vert_displacement>
415.10744487130768
</vert_displacement>
</event>
<event>
 4   1200 +8.6263000e+09 5.28287000e-03 7.81665300e-03            nan
       50 -1    0    0    0    0 +2.4284003406e-02 +3.4058708101e-02 +1.5193217113e+01 1.5193275515e+01 4.9935713700e-03 0.0000e+00 0.0000e+00
       11 -1    0    0    0    0 +8.6507496727e-19 +1.2132816531e-18 +5.4123167325e-16 5.1100000000e-04 5.1099893000e-04 0.0000e+00 1.0000e+00
       50  1    1    2    0    0 +2.5915051949e-02 +3.3506797571e-02 +1.5190306113e+01 1.5190365994e+01 4.9935713700e-03 0.0000e+00 0.0000e+00
       11  1    1    2    0    0 -1.6310485435e-03 +5.5191052990e-04 +2.9110002020e-03 3.4205214027e-03 5.1099893000e-04 0.0000e+00 1.0000e+00
<vert_displacement>
486.30412945587955
</vert_displacement>
</event>
<event>
 4   1200 +8.6263000e+09 2.09604900e-02 7.81665300e-03            nan
       50 -1    0    0    0    0 -8.5334883219e-03 -5.1574259139e-02 +2.1101979380e+01 2.1102044721e+01 4.9935713700e-03 0.0000e+00 0.0000e+00
       11 -1    0    0    0    0 +3.4794772707e-19 +2.1029086308e-18 -8.6042020393e-16 5.1100000000e-04 5.1099893000e-04 0.0000e+00 1.0000e+00
       50  1    1    2    0    0 -1.0099518424e-02 -3.0280381115e-02 +2.0688417565e+01 2.0688442793e+01 4.9935713700e-03 0.0000e+00 0.0000e+00
       11  1    1    2    0    0 +1.5660301025e-03 -2.1293878024e-02 +4.1356181489e-01 4.1411292849e-01 5.1099893000e-04 0.0000e+00 1.0000e+00
<vert_displacement>
78.111746679665316
</vert_displacement>
</event>
<event>
 4   1200 +8.6263000e+09 9.23596400e-03 7.81665300e-03            nan
       50 -1    0    0    0    0 -2.9374562364e-03 +6.6783317453e-03 +4.9410656557e+00 4.9410735654e+00 4.9935713700e-03 0.0000e+00 0.0000e+00
       11 -1    0    0    0    0 +1.0312894208e-19 -2.3446452723e-19 -1.7347215849e-16 5.1100000000e-04 5.1099893000e-04 0.0000e+00 1.0000e+00
       50  1    1    2    0    0 -7.2598302584e-05 +1.3833680786e-02 +4.8812563877e+00 4.8812785450e+00 4.9935713700e-03 0.0000e+00 0.0000e+00
       11  1    1    2    0    0 -2.8648579339e-03 -7.1553490404e-03 +5.9809268019e-02 6.0306020360e-02 5.1099893000e-04 0.0000e+00 1.0000e+00
<vert_displacement>
437.18111489330130
</vert_displacement>
</event>
<event>
 4   1200 +8.6263000e+09 1.96615400e-02 7.81665300e-03            nan
       50 -1    0    0    0    0 +1.6649033729e-02 -5.9839254940e-03 +7.1443556233e+00 7.1443792737e+00 4.9935713700e-03 0.0000e+00 0.0000e+00
       11 -1    0    0    0    0 +1.0187214108e-18 -3.6614455351e-19 +4.3714897561e-16 5.1100000000e-04 5.1099893000e-04 0.0000e+00 1.0000e+00
       50  1    1    2    0    0 +2.8850070661e-02 -1.9483370858e-02 +6.7708446036e+00 6.7709359405e+00 4.9935713700e-03 0.0000e+00 0.0000e+00
       11  1    1    2    0    0 -1.2201036932e-02 +1.3499445364e-02 +3.7351101971e-01 3.7395433316e-01 5.1099893000e-04 0.0000e+00 1.0000e+00
<vert_displacement>
102.65770737744057
</vert_displacement>
</event>
<event>
 4   1200 +8.6263000e+09 3.19059200e-02 7.81665300e-03            nan
       50 -1    0    0    0    0 -4.7494187148e-02 -5.8600769815e-02 +3.0941716983e+01 3.0941809329e+01 4.9935713700e-03 0.0000e+00 0.0000e+00
       11 -1    0    0    0    0 -2.1727770926e-18 -2.6808840809e-18 +1.4155301502e-15 5.1100000000e-04 5.1099893000e-04 0.0000e+00 1.0000e+00
       50  1    1    2    0    0 -1.7750278339e-02 -7.0758562023e-02 +2.9937421993e+01 2.9937511292e+01 4.9935713700e-03 0.0000e+00 0.0000e+00
       11  1    1    2    0    0 -2.9743908808e-02 +1.2157792208e-02 +1.0042949898e+00 1.0048090365e+00 5.1099893000e-04 0.0000e+00 1.0000e+00
<vert_displacement>
175.29234223764490
</vert_displacement>
</event>
<event>
 4   1200 +8.6263000e+09 2.84172100e-02 7.81665300e-03            nan
       50 -1    0    0    0    0 +6.9818466668e-02 -2.0454450630e-02 +2.7948628484e+01 2.7948723622e+01 4.9935713700e-03 0.0000e+00 0.0000e+00
       11 -1    0    0    0    0 -1.4213873112e-18 +4.1641843441e-19 -5.6898737236e-16 5.1100000000e-04 5.1099893000e-04 0.0000e+00 1.0000e+00
       50  1    1    2    0    0 +9.4895377460e-02 -1.2726273253e-02 +2.7160562302e+01 2.7160731517e+01 4.9935713700e-03 0.0000e+00 0.0000e+00
       11  1    1    2    0    0 -2.5076910792e-02 -7.7281773777e-03 +7.8806618247e-01 7.8850310415e-01 5.1099893000e-04 0.0000e+00 1.0000e+00
<vert_displacement>
297.85117092344348
</vert_displacement>
</event>
<event>
 4   1200 +8.6263000e+09 3.28736300e-02 7.81665300e-03            nan
       50 -1    0    0    0    0 -3.8654547637e-03 +8.9675382429e-04 +4.2366467337e+00 4.2366515348e+00 4.9935713700e-03 0.0000e+00 0.0000e+00
       11 -1    0    0    0    0 +2.4057583175e-19 -5.5811621230e-20 -2.6367785269e-16 5.1100000000e-04 5.1099893000e-04 0.0000e+00 1.0000e+00
       50  1    1    2    0    0 -3.1965076761e-02 +1.2156959532e-02 +1.8398708260e+00 1.8401954108e+00 4.9935713700e-03 0.0000e+00 0.0000e+00
       11  1    1    2    0    0 +2.8099621998e-02 -1.1260205707e-02 +2.3967759077e+00 2.3969671241e+00 5.1099893000e-04 0.0000e+00 1.0000e+00
<vert_displacement>
176.97587921306771
</vert_displacement>
</event>
<event>
 4   1200 +8.6263000e+09 9.25120600e-03 7.81665300e-03            nan
       50 -1    0    0    0    0 +6.1383079305e-03 -1.9007358459e-02 +1.2215128671e+01 1.2215146022e+01 4.9935713700e-03 0.0000e+00 0.0000e+00
       11 -1    0    0    0    0 +6.2764315490e-19 -1.9435060223e-18 +1.2489992329e-15 5.1100000000e-04 5.1099893000e-04 0.0000e+00 1.0000e+00
       50  1    1    2    0    0 +1.3515030655e-02 -1.6508322124e-02 +1.2155491042e+01 1.2155510791e+01 4.9935713700e-03 0.0000e+00 0.0000e+00
       11  1    1    2    0    0 -7.3767227245e-03 -2.4990363353e-03 +5.9637629192e-02 6.0146231439e-02 5.1099893000e-04 0.0000e+00 1.0000e+00
<vert_displacement>
216.89719646618491
</vert_displacement>
</event>
<event>
 4   1200 +8.6263000e+09 8.29618300e-03 7.81665300e-03            nan
       50 -1    0    0    0    0 +8.4365499010e-03 +1.4080079303e-02 +8.3708042251e+00 8.3708218076e+00 4.9935713700e-03 0.0000e+00 0.0000e+00
       11 -1    0    0    0    0 +1.3776957960e-18 +2.2992889618e-18 +1.3669594711e-15 5.1100000000e-04 5.1099893000e-04 0.0000e+00 1.0000e+00
       50  1    1    2    0    0 +3.6523633441e-03 +1.8635299803e-02 +8.3276292928e+00 8.3276524416e+00 4.9935713700e-03 0.0000e+00 0.0000e+00
       11  1    1    2    0    0 +4.7841865569e-03 -4.5552204998e-03 +4.3174932255e-02 4.3680365955e-02 5.1099893000e-04 0.0000e+00 1.0000e+00
<vert_displacement>
302.10919644754023
</vert_displacement>
</event>
<event>
 4   1200 +8.6263000e+09 1.14965300e-02 7.81665300e-03            nan
       50 -1    0    0    0    0 +4.3895981167e-02 -3.5773728839e-02 +2.9622149732e+01 2.9622204279e+01 4.9935713700e-03 0.0000e+00 0.0000e+00
       11 -1    0    0    0    0 -4.1335547534e-18 +3.3687062678e-18 -2.7894302526e-15 5.1100000000e-04 5.1099893000e-04 0.0000e+00 1.0000e+00
       50  1    1    2    0    0 +4.0893885404e-02 -2.5689942033e-02 +2.9516863603e+01 2.9516903533e+01 4.9935713700e-03 0.0000e+00 0.0000e+00
       11  1    1    2    0    0 +3.0020957626e-03 -1.0083786806e-02 +1.0528612963e-01 1.0581174579e-01 5.1099893000e-04 0.0000e+00 1.0000e+00
<vert_displacement>
236.75954388891168
</vert_displacement>
</event>
<event>
 4   1200 +8.6263000e+09 2.31725600e-02 7.81665300e-03            nan
       50 -1    0    0    0    0 +2.2384321752e-03 +8.3842844456e-03 +4.6396663998e+00 4.6396772026e+00 4.9935713700e-03 0.0000e+00 0.0000e+00
       11 -1    0    0    0    0 +3.0129309699e-20 +1.1285251591e-19 +6.2449935900e-17 5.1100000000e-04 5.1099893000e-04 0.0000e+00 1.0000e+00
       50  1    1    2    0    0 -1.5240083415e-02 -7.3496443385e-03 +4.0677679184e+00 4.0678061718e+00 4.9935713700e-03 0.0000e+00 0.0000e+00
       11  1    1    2    0    0 +1.7478515590e-02 +1.5733928784e-02 +5.7189848139e-01 5.7238203078e-01 5.1099893000e-04 0.0000e+00 1.0000e+00
<vert_displacement>
177.99793026053564
</vert_displacement>
</event>
<event>
 4   1200 +8.6263000e+09 4.31763200e-02 7.81665300e-03            nan
       50 -1    0    0    0    0 -3.0407277156e-02 -1.9472979553e-02 +1.1719712197e+01 1.1719768884e+01 4.9935713700e-03 0.0000e+00 0.0000e+00
       11 -1    0    0    0    0 +7.9213909578e-19 +5.0729002587e-19 -3.0530988271e-16 5.1100000000e-04 5.1099893000e-04 0.0000e+00 1.0000e+00
       50  1    1    2    0    0 -6.7522950975e-02 -1.5053288933e-02 +9.4977884411e+00 9.4980417013e+00 4.9935713700e-03 0.0000e+00 0.0000e+00
       11  1    1    2    0    0 +3.7115673819e-02 -4.4196906201e-03 +2.2219237554e+00 2.2222381832e+00 5.1099893000e-04 0.0000e+00 1.0000e+00
<vert_displacement>
434.42410779924899
</vert_displacement>
</event>
<event>
 4   1200 +8.6263000e+09 1.44606200e-02 7.81665300e-03            nan
       50 -1    0    0    0    0 -3.9594161555e-03 +8.5383726616e-03 +1.0784887627e+01 1.0784892890e+01 4.9935713700e-03 0.0000e+00 0.0000e+00
       11 -1    0    0    0    0 -3.2097865535e-19 +6.9218169248e-19 +8.7430029897e-16 5.1100000000e-04 5.1099893000e-04 0.0000e+00 1.0000e+00
       50  1    1    2    0    0 -1.5618926088e-02 +1.5627377250e-03 +1.0601547285e+01 1.0601560082e+01 4.9935713700e-03 0.0000e+00 0.0000e+00
       11  1    1    2    0    0 +1.1659509933e-02 +6.9756349366e-03 +1.8334034173e-01 1.8384380783e-01 5.1099893000e-04 0.0000e+00 1.0000e+00
<vert_displacement>
336.11980958560582
</vert_displacement>
</event>
<event>
 4   1200 +8.6263000e+09 3.30609500e-02 7.81665300e-03            nan
       50 -1    0    0    0    0 +3.0127560841e-03 +2.7766934996e-03 +4.5888768076e+00 4.5888813536e+00 4.9935713700e-03 0.0000e+00 0.0000e+00
       11 -1    0    0    0    0 -3.6444973130e-19 -3.3589350467e-19 -5.5511129105e-16 5.1100000000e-04 5.1099893000e-04 0.0000e+00 1.0000e+00
       50  1    1    2    0    0 +3.1618339594e-02 -1.1908346694e-02 +2.9684222412e+00 2.9686187135e+00 4.9935713700e-03 0.0000e+00 0.0000e+00
       11  1    1    2    0    0 -2.8605583510e-02 +1.4685040194e-02 +1.6204545663e+00 1.6207736401e+00 5.1099893000e-04 0.0000e+00 1.0000e+00
<vert_displacement>
357.56056851571532
</vert_displacement>
</event>
<event>
 4   1200 +8.6263000e+09 3.01572600e-02 7.81665300e-03            nan
       50 -1    0    0    0    0 +1.6780925500e-02 +1.2542471330e-02 +7.3617526490e+00 7.3617841529e+00 4.9935713700e-03 0.0000e+00 0.0000e+00
       11 -1    0    0    0    0 +7.9084829182e-19 +5.9109922314e-19 +3.4694329030e-16 5.1100000000e-04 5.1099893000e-04 0.0000e+00 1.0000e+00
       50  1    1    2    0    0 +2.7699578262e-02 -1.5814791838e-02 +6.3592602042e+00 6.3593421558e+00 4.9935713700e-03 0.0000e+00 0.0000e+00
       11  1    1    2    0    0 -1.0918652762e-02 +2.8357263168e-02 +1.0024924448e+00 1.0029529970e+00 5.1099893000e-04 0.0000e+00 1.0000e+00
<vert_displacement>
11.287896036231547
</vert_displacement>
</event>
<event>
 4   1200 +8.6263000e+09 1.00190400e-02 7.81665300e-03            nan
       50 -1    0    0    0    0 -1.8113308846e-02 +1.5572343745e-02 +6.1226513027e+00 6.1226999355e+00 4.9935713700e-03 0.0000e+00 0.0000e+00
       11 -1    0    0    0    0 -4.1055864719e-20 +3.5296479709e-20 +1.3877682192e-17 5.1100000000e-04 5.1099893000e-04 0.0000e+00 1.0000e+00
       50  1    1    2    0    0 -1.2903171455e-02 +2.2492460763e-02 +6.0479048867e+00 6.0479625377e+00 4.9935713700e-03 0.0000e+00 0.0000e+00
       11  1    1    2    0    0 -5.2101373907e-03 -6.9201170184e-03 +7.4746415998e-02 7.5248397828e-02 5.1099893000e-04 0.0000e+00 1.0000e+00
<vert_displacement>
63.663579743976776
</vert_displacement>
</event>
<event>
 4   1200 +8.6263000e+09 2.69037500e-02 7.81665300e-03            nan
       50 -1    0    0    0    0 -5.3206021229e-02 +6.6660185521e-03 +1.9026642981e+01 1.9026719196e+01 4.9935713700e-03 0.0000e+00 0.0000e+00
       11 -1    0    0    0    0 -2.7165341716e-19 +3.4034620081e-20 +9.7144128868e-17 5.1100000000e-04 5.1099893000e-04 0.0000e+00 1.0000e+00
       50  1    1    2    0    0 -3.2033485640e-02 -1.1769989093e-02 +1.8316297401e+01 1.8316329875e+01 4.9935713700e-03 0.0000e+00 0.0000e+00
       11  1    1    2    0    0 -2.1172535589e-02 +1.8436007645e-02 +7.1034557970e-01 7.1090032098e-01 5.1099893000e-04 0.0000e+00 1.0000e+00
<vert_displacement>
459.69290303255775
</vert_displacement>
</event>
<event>
 4   1200 +8.6263000e+09 7.46958900e-03 7.81665300e-03            nan
       50 -1    0    0    0    0 -3.4385306896e-02 -9.2713866827e-03 +1.4354914729e+01 1.4354959774e+01 4.9935713700e-03 0.0000e+00 0.0000e+00
       11 -1    0    0    0    0 +5.9836157854e-19 +1.6133756164e-19 -2.4979941179e-16 5.1100000000e-04 5.1099893000e-04 0.0000e+00 -1.0000e+00
       50  1    1    2    0    0 -2.8758839039e-02 -9.1419170826e-03 +1.4324668500e+01 1.4324701156e+01 4.9935713700e-03 0.0000e+00 0.0000e+00
       11  1    1    2    0    0 -5.6264678565e-03 -1.2946960009e-04 +3.0246228747e-02 3.0769617746e-02 5.1099893000e-04 0.0000e+00 -1.0000e+00
<vert_displacement>
185.32261660161305
</vert_displacement>
</event>
<event>
 4   1200 +8.6263000e+09 1.10791200e-02 7.81665300e-03            nan
       50 -1    0    0    0    0 -1.0901882344e-02 -4.5001639630e-03 +6.7888441263e+00 6.7888562078e+00 4.9935713700e-03 0.0000e+00 0.0000e+00
       11 -1    0    0    0    0 -5.0142705029e-19 -2.0698296593e-19 +3.1224975447e-16 5.1100000000e-04 5.1099893000e-04 0.0000e+00 1.0000e+00
       50  1    1    2    0    0 -1.4315215514e-03 -7.7603285220e-03 +6.6917502359e+00 6.6917567520e+00 4.9935713700e-03 0.0000e+00 0.0000e+00
       11  1    1    2    0    0 -9.4703607927e-03 +3.2601645591e-03 +9.7093890438e-02 9.7610455827e-02 5.1099893000e-04 0.0000e+00 1.0000e+00
<vert_displacement>
495.15918114911085
</vert_displacement>
</event>
<event>
 4   1200 +8.6263000e+09 1.36530500e-02 7.81665300e-03            nan
       50 -1    0    0    0    0 +1.1513764225e-03 +6.8657161483e-03 +2.6367603597e+00 2.6367742781e+00 4.9935713700e-03 0.0000e+00 0.0000e+00
       11 -1    0    0    0    0 +5.6054067578e-20 +3.3425325500e-19 +1.2836908981e-16 5.1100000000e-04 5.1099893000e-04 0.0000e+00 1.0000e+00
       50  1    1    2    0    0 -1.0529831946e-02 +1.2549933555e-03 +2.4678298837e+00 2.4678577194e+00 4.9935713700e-03 0.0000e+00 0.0000e+00
       11  1    1    2    0    0 +1.1681208369e-02 +5.6107227928e-03 +1.6893047593e-01 1.6942755873e-01 5.1099893000e-04 0.0000e+00 1.0000e+00
<vert_displacement>
111.76906094624253
</vert_displacement>
</event>
<event>
 4   1200 +8.6263000e+09 1.44170800e-02 7.81665300e-03            nan
       50 -1    0    0    0    0 +1.4768384285e-02 -2.4733326335e-02 +1.1701756239e+01 1.1701792762e+01 4.9935713700e-03 0.0000e+00 0.0000e+00
       11 -1    0    0    0    0 +1.5500443879e-18 -2.5959341890e-18 +1.2281804994e-15 5.1100000000e-04 5.1099893000e-04 0.0000e+00 1.0000e+00
       50  1    1    2    0    0 +1.0429883289e-02 -3.7234358716e-02 +1.1519917262e+01 1.1519983240e+01 4.9935713700e-03 0.0000e+00 0.0000e+00
       11  1    1    2    0    0 +4.3385009959e-03 +1.2501032381e-02 +1.8183897620e-01 1.8232052212e-01 5.1099893000e-04 0.0000e+00 1.0000e+00
<vert_displacement>
234.61697562148711
</vert_displacement>
</event>
<event>
 4   1200 +8.6263000e+09 7.77046600e-03 7.81665300e-03            nan
       50 -1    0    0    0    0 +7.5713447205e-04 +8.4988446157e-04 +2.8161208501e+00 2.8161255074e+00 4.9935713700e-03 0.0000e+00 0.0000e+00
       11 -1    0    0    0    0 +5.5967150806e-21 +6.2823201933e-21 +2.0816680011e-17 5.1100000000e-04 5.1099893000e-04 0.0000e+00 1.0000e+00
       50  1    1    2    0    0 +5.9726425170e-03 +3.6930964198e-03 +2.7809888569e+00 2.7810022059e+00 4.9935713700e-03 0.0000e+00 0.0000e+00
       11  1    1    2    0    0 -5.2155080449e-03 -2.8432119582e-03 +3.5131993158e-02 3.5634301474e-02 5.1099893000e-04 0.0000e+00 1.0000e+00
<vert_displacement>
59.357778361033446
</vert_displacement>
</event>
<event>
 4   1200 +8.6263000e+09 1.72340600e-02 7.81665300e-03            nan
       50 -1    0    0    0    0 -7.3661997908e-02 -5.5133781765e-02 +2.2481827913e+01 2.2482016748e+01 4.9935713700e-03 0.0000e+00 0.0000e+00
       11 -1    0    0    0    0 +3.2283962125e-18 +2.4163571080e-18 -9.8531468255e-16 5.1100000000e-04 5.1099893000e-04 0.0000e+00 1.0000e+00
       50  1    1    2    0    0 -7.0234347088e-02 -3.8175767191e-02 +2.2212419069e+01 2.2212563474e+01 4.9935713700e-03 0.0000e+00 0.0000e+00
       11  1    1    2    0    0 -3.4276508203e-03 -1.6958014575e-02 +2.6940884382e-01 2.6996427411e-01 5.1099893000e-04 0.0000e+00 1.0000e+00
<vert_displacement>
9.1589729861920919
</vert_displacement>
</event>
<event>
 4   1200 +8.6263000e+09 1.21717200e-02 7.81665300e-03            nan
       50 -1    0    0    0    0 +1.6769918776e-02 +6.8703339852e-04 +6.2923929011e+00 6.2924172668e+00 4.9935713700e-03 0.0000e+00 0.0000e+00
       11 -1    0    0    0    0 -1.2944994461e-19 -5.3033313142e-21 -4.8572084539e-17 5.1100000000e-04 5.1099893000e-04 0.0000e+00 1.0000e+00
       50  1    1    2    0    0 +1.8130760943e-02 +1.1644634216e-02 +6.1694023036e+00 6.1694419555e+00 4.9935713700e-03 0.0000e+00 0.0000e+00
       11  1    1    2    0    0 -1.3608421671e-03 -1.0957600818e-02 +1.2299059746e-01 1.2348631135e-01 5.1099893000e-04 0.0000e+00 1.0000e+00
<vert_displacement>
116.45878556595058
</vert_displacement>
</event>
<event>
 4   1200 +8.6263000e+09 5.25688700e-03 7.81665300e-03            nan
       50 -1    0    0    0    0 -6.3280223647e-02 +2.1075088761e-02 +3.0377348079e+01 3.0377421711e+01 4.9935713700e-03 0.0000e+00 0.0000e+00
       11 -1    0    0    0    0 +4.3653019668e-18 -1.4538369354e-18 -2.0955409079e-15 5.1100000000e-04 5.1099893000e-04 0.0000e+00 1.0000e+00
       50  1    1    2    0    0 -6.4793508613e-02 +2.0446848376e-02 +3.0374704076e+01 3.0374780475e+01 4.9935713700e-03 0.0000e+00 0.0000e+00
       11  1    1    2    0    0 +1.5132849654e-03 +6.2824038508e-04 +2.6440025905e-03 3.1522352344e-03 5.1099893000e-04 0.0000e+00 1.0000e+00
<vert_displacement>
327.62362056754733
</vert_displacement>
</event>
<event>
 4   1200 +8.6263000e+09 3.52079100e-02 7.81665300e-03            nan
       50 -1    0    0    0    0 +1.4014835278e-02 -1.2280885563e-02 +5.2441913708e+00 5.2442268549e+00 4.9935713700e-03 0.0000e+00 0.0000e+00
       11 -1    0    0    0    0 +5.3776801684e-19 -4.7123404187e-19 +2.0122665287e-16 5.1100000000e-04 5.1099893000e-04 0.0000e+00 1.0000e+00
       50  1    1    2    0    0 -2.3339619513e-02 -2.0676612698e-02 +3.4137314146e+00 3.4138774681e+00 4.9935713700e-03 0.0000e+00 0.0000e+00
       11  1    1    2    0    0 +3.7354454791e-02 +8.3957271353e-03 +1.8304599562e+00 1.8308603868e+00 5.1099893000e-04 0.0000e+00 1.0000e+00
<vert_displacement>
161.09381986158161
</vert_displacement>
</event>
<event>
 4   1200 +8.6263000e+09 1.55007900e-02 7.81665300e-03            nan
       50 -1    0    0    0    0 +1.7429086721e-02 +1.0318680585e-02 +6.4283582992e+00 6.4283921479e+00 4.9935713700e-03 0.0000e+00 0.0000e+00
       11 -1    0    0    0    0 -1.4674295142e-18 -8.6877394559e-19 -5.4123103793e-16 5.1100000000e-04 5.1099893000e-04 0.0000e+00 1.0000e+00
       50  1    1    2    0    0 +2.7869401085e-02 +2.9181974734e-04 +6.2101940718e+00 6.2102586205e+00 4.9935713700e-03 0.0000e+00 0.0000e+00
       11  1    1    2    0    0 -1.0440314364e-02 +1.0026860838e-02 +2.1816422743e-01 2.1864452738e-01 5.1099893000e-04 0.0000e+00 1.0000e+00
<vert_displacement>
380.08541780521523
</vert_displacement>
</event>
<event>
 4   1200 +8.6263000e+09 6.54995100e-02 7.81665300e-03            nan
       50 -1    0    0    0    0 -7.3136609463e-02 -6.6169503367e-02 +4.1872202608e+01 4.1872319061e+01 4.9935713700e-03 0.0000e+00 0.0000e+00
       11 -1    0    0    0    0 -9.6958981695e-20 -8.7722519717e-20 +5.5510997241e-17 5.1100000000e-04 5.1099893000e-04 0.0000e+00 1.0000e+00
       50  1    1    2    0    0 -6.4630746094e-02 +6.5686462800e-03 +3.7170582919e+01 3.7170640023e+01 4.9935713700e-03 0.0000e+00 0.0000e+00
       11  1    1    2    0    0 -8.5058633691e-03 -7.2738149647e-02 +4.7016196888e+00 4.7021900373e+00 5.1099893000e-04 0.0000e+00 1.0000e+00
<vert_displacement>
17.719608526278961
</vert_displacement>
</event>
<event>
 4   1200 +8.6263000e+09 2.44605900e-02 7.81665300e-03            nan
       50 -1    0    0    0    0 -4.4302817160e-02 +7.2984939464e-02 +3.6005006013e+01 3.6005107589e+01 4.9935713700e-03 0.0000e+00 0.0000e+00
       11 -1    0    0    0    0 +4.4568496612e-18 -7.3422622662e-18 -3.6220924342e-15 5.1100000000e-04 5.1099893000e-04 0.0000e+00 1.0000e+00
       50  1    1    2    0    0 -1.9667422538e-02 +7.1087377665e-02 +3.5434956581e+01 3.5435033697e+01 4.9935713700e-03 0.0000e+00 0.0000e+00
       11  1    1    2    0    0 -2.4635394622e-02 +1.8975617991e-03 +5.7004943152e-01 5.7058489194e-01 5.1099893000e-04 0.0000e+00 1.0000e+00
<vert_displacement>
450.26855105169187
</vert_displacement>
</event>
<event>
 4   1200 +8.6263000e+09 5.35384100e-03 7.81665300e-03            nan
       50 -1    0    0    0    0 -1.0858706505e-02 +3.7196455828e-03 +3.8661855824e+00 3.8662058456e+00 4.9935713700e-03 0.0000e+00 0.0000e+00
       11 -1    0    0    0    0 -1.9488738631e-19 +6.6758596461e-20 +6.9388633242e-17 5.1100000000e-04 5.1099893000e-04 0.0000e+00 1.0000e+00
       50  1    1    2    0    0 -1.2591020374e-02 +4.5475647000e-03 +3.8625283360e+00 3.8625547628e+00 4.9935713700e-03 0.0000e+00 0.0000e+00
       11  1    1    2    0    0 +1.7323138691e-03 -8.2791911715e-04 +3.6572463944e-03 4.1620827120e-03 5.1099893000e-04 0.0000e+00 1.0000e+00
<vert_displacement>
68.263555897427779
</vert_displacement>
</event>
<event>
 4   1200 +8.6263000e+09 1.19564600e-02 7.81665300e-03            nan
       50 -1    0    0    0    0 -3.6331628011e-02 +3.5341167061e-02 +1.4362647513e+01 1.4362737814e+01 4.9935713700e-03 0.0000e+00 0.0000e+00
       11 -1    0    0    0    0 +1.9132177332e-18 -1.8610602177e-18 -7.5633472602e-16 5.1100000000e-04 5.1099893000e-04 0.0000e+00 1.0000e+00
       50  1    1    2    0    0 -3.0414234673e-02 +4.4350067438e-02 +1.4246209563e+01 1.4246311937e+01 4.9935713700e-03 0.0000e+00 0.0000e+00
       11  1    1    2    0    0 -5.9173933380e-03 -9.0089003766e-03 +1.1643795015e-01 1.1693687692e-01 5.1099893000e-04 0.0000e+00 1.0000e+00
<vert_displacement>
210.62980615080309
</vert_displacement>
</event>
<event>
 4   1200 +8.6263000e+09 1.60879600e-02 7.81665300e-03            nan
       50 -1    0    0    0    0 +2.4512705466e-02 +7.7970591278e-03 +1.0370523719e+01 1.0370556822e+01 4.9935713700e-03 0.0000e+00 0.0000e+00
       11 -1    0    0    0    0 +2.4438004331e-18 +7.7732980149e-19 +1.0338920113e-15 5.1100000000e-04 5.1099893000e-04 0.0000e+00 1.0000e+00
       50  1    1    2    0    0 +1.0075680058e-02 +1.4034518319e-02 +1.0136389677e+01 1.0136405630e+01 4.9935713700e-03 0.0000e+00 0.0000e+00
       11  1    1    2    0    0 +1.4437025408e-02 -6.2374591910e-03 +2.3413404224e-01 2.3466219222e-01 5.1099893000e-04 0.0000e+00 1.0000e+00
<vert_displacement>
175.21822707933234
</vert_displacement>
</event>
<event>
 4   1200 +8.6263000e+09 1.94521400e-02 7.81665300e-03            nan
       50 -1    0    0    0    0 +8.1243484292e-03 +4.5400691092e-03 +2.5146246435e+00 2.5146468242e+00 4.9935713700e-03 0.0000e+00 0.0000e+00
       11 -1    0    0    0    0 +6.7254895278e-20 +3.7583552103e-20 +2.0816539139e-17 5.1100000000e-04 5.1099893000e-04 0.0000e+00 1.0000e+00
       50  1    1    2    0    0 +1.1432379901e-02 -1.4425705761e-02 +2.0995572204e+00 2.0996438407e+00 4.9935713700e-03 0.0000e+00 0.0000e+00
       11  1    1    2    0    0 -3.3080314716e-03 +1.8965774870e-02 +4.1506742304e-01 4.1551398350e-01 5.1099893000e-04 0.0000e+00 1.0000e+00
<vert_displacement>
446.93999625380576
</vert_displacement>
</event>
<event>
 4   1200 +8.6263000e+09 2.04296500e-02 7.81665300e-03            nan
       50 -1    0    0    0    0 -1.9306902995e-02 -3.1015728205e-02 +2.2070729157e+01 2.2070759960e+01 4.9935713700e-03 0.0000e+00 0.0000e+00
       11 -1    0    0    0    0 -8.3765400981e-19 -1.3456559607e-18 +9.5756604684e-16 5.1100000000e-04 5.1099893000e-04 0.0000e+00 1.0000e+00
       50  1    1    2    0    0 -1.3321955769e-02 -4.9455604257e-02 +2.1679779955e+01 2.1679841032e+01 4.9935713700e-03 0.0000e+00 0.0000e+00
       11  1    1    2    0    0 -5.9849472259e-03 +1.8439876053e-02 +3.9094920204e-01 3.9142992773e-01 5.1099893000e-04 0.0000e+00 1.0000e+00
<vert_displacement>
330.20395575931065
</vert_displacement>
</event>
<event>
 4   1200 +8.6263000e+09 1.05620700e-02 7.81665300e-03            nan
       50 -1    0    0    0    0 -9.1367997226e-03 +8.0431013841e-03 +6.2610197938e+00 6.2610336181e+00 4.9935713700e-03 0.0000e+00 0.0000e+00
       11 -1    0    0    0    0 +2.3289828523e-19 -2.0501976372e-19 -1.5959425817e-16 5.1100000000e-04 5.1099893000e-04 0.0000e+00 1.0000e+00
       50  1    1    2    0    0 -1.8086484401e-02 +5.8678081971e-03 +6.1750612034e+00 6.1750924976e+00 4.9935713700e-03 0.0000e+00 0.0000e+00
       11  1    1    2    0    0 +8.9496846787e-03 +2.1752931870e-03 +8.5958590389e-02 8.6452120493e-02 5.1099893000e-04 0.0000e+00 1.0000e+00
<vert_displacement>
196.40126690006443
</vert_displacement>
</event>
<event>
 4   1200 +8.6263000e+09 2.57926500e-02 7.81665300e-03            nan
       50 -1    0    0    0    0 +1.0329737187e-02 -1.3370194343e-02 +7.0862208918e+00 7.0862427935e+00 4.9935713700e-03 0.0000e+00 0.0000e+00
       11 -1    0    0    0    0 -1.7802306200e-18 +2.3042240992e-18 -1.2212418558e-15 5.1100000000e-04 5.1099893000e-04 0.0000e+00 1.0000e+00
       50  1    1    2    0    0 -1.3012919648e-02 -2.3963339599e-02 +6.3912545999e+00 6.3913147219e+00 4.9935713700e-03 0.0000e+00 0.0000e+00
       11  1    1    2    0    0 +2.3342656834e-02 +1.0593145257e-02 +6.9496629189e-01 6.9543907162e-01 5.1099893000e-04 0.0000e+00 1.0000e+00
<vert_displacement>
296.57415408704793
</vert_displacement>
</event>
<event>
 4   1200 +8.6263000e+09 5.11960100e-03 7.81665300e-03            nan
       50 -1    0    0    0    0 +4.5557106792e-02 -2.2500423695e-02 +1.7341884553e+01 1.7341959708e+01 4.9935713700e-03 0.0000e+00 0.0000e+00
       11 -1    0    0    0    0 +7.2913545881e-19 -3.6011630039e-19 +2.7755456482e-16 5.1100000000e-04 5.1099893000e-04 0.0000e+00 1.0000e+00
       50  1    1    2    0    0 +4.5126425185e-02 -2.1453874897e-02 +1.7340639787e+01 1.7340712495e+01 4.9935713700e-03 0.0000e+00 0.0000e+00
       11  1    1    2    0    0 +4.3068160740e-04 -1.0465487980e-03 +1.2447660264e-03 1.7582131271e-03 5.1099893000e-04 0.0000e+00 1.0000e+00
<vert_displacement>
487.58245180109924
</vert_displacement>
</event>
<event>
 4   1200 +8.6263000e+09 4.94476700e-02 7.81665300e-03            nan
       50 -1    0    0    0    0 -9.0593824036e-03 -6.2338217261e-02 +2.5796829273e+01 2.5796906667e+01 4.9935713700e-03 0.0000e+00 0.0000e+00
       11 -1    0    0    0    0 -1.2915079517e-18 -8.8869527416e-18 +3.6776028046e-15 5.1100000000e-04 5.1099893000e-04 0.0000e+00 1.0000e+00
       50  1    1    2    0    0 +1.6402419799e-02 -9.8602883530e-02 +2.3158615386e+01 2.3158831643e+01 4.9935713700e-03 0.0000e+00 0.0000e+00
       11  1    1    2    0    0 -2.5461802203e-02 +3.6264666269e-02 +2.6382138872e+00 2.6385860238e+00 5.1099893000e-04 0.0000e+00 1.0000e+00
<vert_displacement>
172.83227413960552
</vert_displacement>
</event>
<event>
 4   1200 +8.6263000e+09 2.27821700e-02 7.81665300e-03            nan
       50 -1    0    0    0    0 -2.1739320370e-02 -2.9054454123e-02 +1.1622464957e+01 1.1622522677e+01 4.9935713700e-03 0.0000e+00 0.0000e+00
       11 -1    0    0    0    0 +1.5444818505e-18 +2.0641895102e-18 -8.2572435005e-16 5.1100000000e-04 5.1099893000e-04 0.0000e+00 1.0000e+00
       50  1    1    2    0    0 -3.1563060350e-02 -4.7235806659e-02 +1.1116889491e+01 1.1117035772e+01 4.9935713700e-03 0.0000e+00 0.0000e+00
       11  1    1    2    0    0 +9.8237399795e-03 +1.8181352536e-02 +5.0557546528e-01 5.0599790480e-01 5.1099893000e-04 0.0000e+00 1.0000e+00
<vert_displacement>
433.28067240576070
</vert_displacement>
</event>
<event>
 4   1200 +8.6263000e+09 1.35400800e-02 7.81665300e-03            nan
       50 -1    0    0    0    0 +9.6007957804e-02 -2.3013990800e-02 +2.9738999522e+01 2.9739163819e+01 4.9935713700e-03 0.0000e+00 0.0000e+00
       11 -1    0    0    0    0 +5.7346735074e-18 -1.3746540011e-18 +1.7763470508e-15 5.1100000000e-04 5.1099893000e-04 0.0000e+00 1.0000e+00
       50  1    1    2    0    0 +9.0764992812e-02 -3.4552346210e-02 +2.9583198836e+01 2.9583358675e+01 4.9935713700e-03 0.0000e+00 0.0000e+00
       11  1    1    2    0    0 +5.2429649921e-03 +1.1538355411e-02 +1.5580068545e-01 1.5631614451e-01 5.1099893000e-04 0.0000e+00 1.0000e+00
<vert_displacement>
136.65977921193362
</vert_displacement>
</event>
<event>
 4   1200 +8.6263000e+09 6.53469200e-03 7.81665300e-03            nan
       50 -1    0    0    0    0 -2.9313817292e-02 -4.9962984670e-03 +1.2157302611e+01 1.2157340004e+01 4.9935713700e-03 0.0000e+00 0.0000e+00
       11 -1    0    0    0    0 -1.7734949776e-18 -3.0227759660e-19 +7.3552055357e-16 5.1100000000e-04 5.1099893000e-04 0.0000e+00 1.0000e+00
       50  1    1    2    0    0 -3.1352416866e-02 -8.6548760681e-03 +1.2139886434e+01 1.2139931031e+01 4.9935713700e-03 0.0000e+00 0.0000e+00
       11  1    1    2    0    0 +2.0385995748e-03 +3.6585776011e-03 +1.7416176653e-02 1.7919972305e-02 5.1099893000e-04 0.0000e+00 1.0000e+00
<vert_displacement>
253.38567595326970
</vert_displacement>
</event>
<event>
 4   1200 +8.6263000e+09 1.35539100e-02 7.81665300e-03            nan
       50 -1    0    0    0    0 +1.3235671431e-04 -1.9001698207e-03 +4.9018073379e+00 4.9018102515e+00 4.9935713700e-03 0.0000e+00 0.0000e+00
       11 -1    0    0    0    0 +2.8104199087e-21 -4.0347594919e-20 +1.0408340070e-16 5.1100000000e-04 5.1099893000e-04 0.0000e+00 1.0000e+00
       50  1    1    2    0    0 +1.6285673185e-03 +1.0672952357e-02 +4.7411489866e+00 4.7411639091e+00 4.9935713700e-03 0.0000e+00 0.0000e+00
       11  1    1    2    0    0 -1.4962106041e-03 -1.2573122178e-02 +1.6065835132e-01 1.6115734242e-01 5.1099893000e-04 0.0000e+00 1.0000e+00
<vert_displacement>
342.03239877479882
</vert_displacement>
</event>
<event>
 4   1200 +8.6263000e+09 3.17742500e-02 7.81665300e-03            nan
       50 -1    0    0    0    0 -2.9794492114e-02 +2.1753554815e-03 +1.4808815232e+01 1.4808846206e+01 4.9935713700e-03 0.0000e+00 0.0000e+00
       11 -1    0    0    0    0 -2.3733072014e-19 +1.7327990725e-20 +1.1796095635e-16 5.1100000000e-04 5.1099893000e-04 0.0000e+00 1.0000e+00
       50  1    1    2    0    0 -4.9325353788e-02 -2.0724091914e-02 +1.3772662284e+01 1.3772767108e+01 4.9935713700e-03 0.0000e+00 0.0000e+00
       11  1    1    2    0    0 +1.9530861674e-02 +2.2899447395e-02 +1.0361529484e+00 1.0365900988e+00 5.1099893000e-04 0.0000e+00 1.0000e+00
<vert_displacement>
1.6718165972839385
</vert_displacement>
</event>
<event>
 4   1200 +8.6263000e+09 6.93029100e-03 7.81665300e-03            nan
       50 -1    0    0    0    0 +1.1933817748e-02 +2.9483747118e-03 +9.4224542533e+00 9.4224635951e+00 4.9935713700e-03 0.0000e+00 0.0000e+00
       11 -1    0    0    0    0 +3.0759076017e-19 +7.5993520094e-20 +2.4286107996e-16 5.1100000000e-04 5.1099893000e-04 0.0000e+00 1.0000e+00
       50  1    1    2    0    0 +1.5736102011e-02 +5.8424566660e-03 +9.3997966249e+00 9.3998129388e+00 4.9935713700e-03 0.0000e+00 0.0000e+00
       11  1    1    2    0    0 -3.8022842629e-03 -2.8940819542e-03 +2.2657628375e-02 2.3161656233e-02 5.1099893000e-04 0.0000e+00 1.0000e+00
<vert_displacement>
145.84970965179224
</vert_displacement>
</event>
<event>
 4   1200 +8.6263000e+09 7.77971900e-03 7.81665300e-03            nan
       50 -1    0    0    0    0 -1.2744282150e-01 -6.9646605532e-03 +4.8067702094e+01 4.8067871804e+01 4.9935713700e-03 0.0000e+00 0.0000e+00
       11 -1    0    0    0    0 +1.6189498851e-18 +8.8474472471e-20 -6.1062051096e-16 5.1100000000e-04 5.1099893000e-04 0.0000e+00 1.0000e+00
       50  1    1    2    0    0 -1.2186860918e-01 -4.6063807881e-03 +4.8032869269e+01 4.8033024351e+01 4.9935713700e-03 0.0000e+00 0.0000e+00
       11  1    1    2    0    0 -5.5742123215e-03 -2.3582797651e-03 +3.4832825259e-02 3.5358452482e-02 5.1099893000e-04 0.0000e+00 1.0000e+00
<vert_displacement>
286.29892663417945
</vert_displacement>
</event>
<event>
 4   1200 +8.6263000e+09 2.04979600e-02 7.81665300e-03            nan
       50 -1    0    0    0    0 +3.9411751791e-03 +4.6670188337e-03 +9.7188974380e+00 9.7189006405e+00 4.9935713700e-03 0.0000e+00 0.0000e+00
       11 -1    0    0    0    0 +4.2770318979e-19 +5.0647300647e-19 +1.0547116651e-15 5.1100000000e-04 5.1099893000e-04 0.0000e+00 1.0000e+00
       50  1    1    2    0    0 -1.1217374340e-02 -8.5798476037e-03 +9.3153698442e+00 9.3153818877e+00 4.9935713700e-03 0.0000e+00 0.0000e+00
       11  1    1    2    0    0 +1.5158549519e-02 +1.3246866437e-02 +4.0352759377e-01 4.0402975280e-01 5.1099893000e-04 0.0000e+00 1.0000e+00
<vert_displacement>
112.63606686912597
</vert_displacement>
</event>
<event>
 4   1200 +8.6263000e+09 2.10577900e-02 7.81665300e-03            nan
       50 -1    0    0    0    0 +6.3000649618e-03 +2.6347364705e-03 +2.6359314003e+00 2.6359449758e+00 4.9935713700e-03 0.0000e+00 0.0000e+00
       11 -1    0    0    0    0 +5.9703833094e-19 +2.4968610234e-19 +2.4979934227e-16 5.1100000000e-04 5.1099893000e-04 0.0000e+00 1.0000e+00
       50  1    1    2    0    0 -8.7023728147e-03 +1.7239838038e-02 +2.1273538910e+00 2.1274474039e+00 4.9935713700e-03 0.0000e+00 0.0000e+00
       11  1    1    2    0    0 +1.5002437777e-02 -1.4605101567e-02 +5.0857750937e-01 5.0900857192e-01 5.1099893000e-04 0.0000e+00 1.0000e+00
<vert_displacement>
54.240732864264714
</vert_displacement>
</event>
<event>
 4   1200 +8.6263000e+09 2.16111000e-02 7.81665300e-03            nan
       50 -1    0    0    0    0 -1.5248352739e-02 +2.0268284076e-02 +1.0302181339e+01 1.0302213771e+01 4.9935713700e-03 0.0000e+00 0.0000e+00
       11 -1    0    0    0    0 +2.9783838529e-19 -3.9589017287e-19 -2.0122731336e-16 5.1100000000e-04 5.1099893000e-04 0.0000e+00 1.0000e+00
       50  1    1    2    0    0 -3.5508326153e-02 +2.1389789825e-02 +9.8496148981e+00 9.8497033936e+00 4.9935713700e-03 0.0000e+00 0.0000e+00
       11  1    1    2    0    0 +2.0259973414e-02 -1.1215057487e-03 +4.5256644056e-01 4.5302137757e-01 5.1099893000e-04 0.0000e+00 1.0000e+00
<vert_displacement>
104.08770545750352
</vert_displacement>
</event>
<event>
 4   1200 +8.6263000e+09 2.32333500e-02 7.81665300e-03            nan
       50 -1    0    0    0    0 -7.6896654057e-02 +4.7818617841e-02 +2.5680977436e+01 2.5681137567e+01 4.9935713700e-03 0.0000e+00 0.0000e+00
       11 -1    0    0    0    0 -4.5293922725e-18 +2.8166281197e-18 +1.5126694676e-15 5.1100000000e-04 5.1099893000e-04 0.0000e+00 1.0000e+00
       50  1    1    2    0    0 -9.1857227437e-02 +3.1285564013e-02 +2.5166879884e+01 2.5167067461e+01 4.9935713700e-03 0.0000e+00 0.0000e+00
       11  1    1    2    0    0 +1.4960573380e-02 +1.6533053827e-02 +5.1409755175e-01 5.1458110582e-01 5.1099893000e-04 0.0000e+00 1.0000e+00
<vert_displacement>
384.85322225612219
</vert_displacement>
</event>
<event>
 4   1200 +8.6263000e+09 1.14549900e-02 7.81665300e-03            nan
       50 -1    0    0    0    0 +6.1849850477e-02 -3.5139183877e-02 +1.9070103789e+01 1.9070237116e+01 4.9935713700e-03 0.0000e+00 0.0000e+00
       11 -1    0    0    0    0 -1.7103556056e-18 +9.7171617487e-19 -5.2735226786e-16 5.1100000000e-04 5.1099893000e-04 0.0000e+00 1.0000e+00
       50  1    1    2    0    0 +7.0447463875e-02 -4.0085951100e-02 +1.8965495846e+01 1.8965669705e+01 4.9935713700e-03 0.0000e+00 0.0000e+00
       11  1    1    2    0    0 -8.5976133980e-03 +4.9467672223e-03 +1.0460794351e-01 1.0507841086e-01 5.1099893000e-04 0.0000e+00 1.0000e+00
<vert_displacement>
370.87314058479683
</vert_displacement>
</event>
<event>
 4   1200 +8.6263000e+09 2.67121400e-02 7.81665300e-03            nan
       50 -1    0    0    0    0 -1.8152863855e-02 +1.2561904900e-02 +1.2310761700e+01 1.2310782505e+01 4.9935713700e-03 0.0000e+00 0.0000e+00
       11 -1    0    0    0    0 +8.1853972581e-19 -5.6643504157e-19 -5.5511061983e-16 5.1100000000e-04 5.1099893000e-04 0.0000e+00 1.0000e+00
       50  1    1    2    0    0 -2.6619158661e-02 -1.2621126918e-02 +1.1595303381e+01 1.1595341879e+01 4.9935713700e-03 0.0000e+00 0.0000e+00
       11  1    1    2    0    0 +8.4662948068e-03 +2.5183031818e-02 +7.1545831901e-01 7.1595162588e-01 5.1099893000e-04 0.0000e+00 1.0000e+00
<vert_displacement>
356.15784566938299
</vert_displacement>
</event>
<event>
 4   1200 +8.6263000e+09 6.37226100e-02 7.81665300e-03            nan
       50 -1    0    0    0    0 +6.1898127779e-02 -5.0939611707e-02 +2.8134729464e+01 2.8134844111e+01 4.9935713700e-03 0.0000e+00 0.0000e+00
       11 -1    0    0    0    0 +3.3585045024e-19 -2.7639109842e-19 +1.5265504623e-16 5.1100000000e-04 5.1099893000e-04 0.0000e+00 1.0000e+00
       50  1    1    2    0    0 +8.6470256042e-02 +1.0661938933e-02 +2.3382556747e+01 2.3382719597e+01 4.9935713700e-03 0.0000e+00 0.0000e+00
       11  1    1    2    0    0 -2.4572128263e-02 -6.1601550640e-02 +4.7521727163e+00 4.7526355138e+00 5.1099893000e-04 0.0000e+00 1.0000e+00
<vert_displacement>
352.82841492834240
</vert_displacement>
</event>
<event>
 4   1200 +8.6263000e+09 8.98817200e-03 7.81665300e-03            nan
       50 -1    0    0    0    0 -1.2871702824e-02 +5.9360203003e-03 +1.1954346521e+01 1.1954355967e+01 4.9935713700e-03 0.0000e+00 0.0000e+00
       11 -1    0    0    0    0 -4.5575342460e-19 +2.1017899632e-19 +4.2327223059e-16 5.1100000000e-04 5.1099893000e-04 0.0000e+00 1.0000e+00
       50  1    1    2    0    0 -1.0285653938e-02 -1.1244545311e-03 +1.1899448552e+01 1.1899454098e+01 4.9935713700e-03 0.0000e+00 0.0000e+00
       11  1    1    2    0    0 -2.5860488860e-03 +7.0604748313e-03 +5.4897968580e-02 5.5412868792e-02 5.1099893000e-04 0.0000e+00 1.0000e+00
<vert_displacement>
34.270407508558854
</vert_displacement>
</event>
<event>
 4   1200 +8.6263000e+09 2.01249700e-02 7.81665300e-03            nan
       50 -1    0    0    0    0 -4.6534133049e-02 -2.9559394921e-02 +1.4481503483e+01 1.4481609277e+01 4.9935713700e-03 0.0000e+00 0.0000e+00
       11 -1    0    0    0    0 -3.9688535769e-18 -2.5210937128e-18 +1.2351141653e-15 5.1100000000e-04 5.1099893000e-04 0.0000e+00 1.0000e+00
       50  1    1    2    0    0 -6.3249379305e-02 -3.6404044383e-02 +1.4099429305e+01 1.4099619052e+01 4.9935713700e-03 0.0000e+00 0.0000e+00
       11  1    1    2    0    0 +1.6715246255e-02 +6.8446494628e-03 +3.8207417762e-01 3.8250122485e-01 5.1099893000e-04 0.0000e+00 1.0000e+00
<vert_displacement>
470.34249770671391
</vert_displacement>
</event>
<event>
 4   1200 +8.6263000e+09 9.86551800e-03 7.81665300e-03            nan
       50 -1    0    0    0    0 -2.2484076141e-02 -1.9056448957e-02 +7.7773660995e+00 7.7774235491e+00 4.9935713700e-03 0.0000e+00 0.0000e+00
       11 -1    0    0    0    0 +2.8886313836e-18 +2.4482685512e-18 -9.9919354730e-16 5.1100000000e-04 5.1099893000e-04 0.0000e+00 1.0000e+00
       50  1    1    2    0    0 -2.7864568574e-02 -1.2464408397e-02 +7.7058678425e+00 7.7059299203e+00 4.9935713700e-03 0.0000e+00 0.0000e+00
       11  1    1    2    0    0 +5.3804924335e-03 -6.5920405597e-03 +7.1498256966e-02 7.2004628786e-02 5.1099893000e-04 0.0000e+00 1.0000e+00
<vert_displacement>
123.53476925507911
</vert_displacement>
</event>
<event>
 4   1200 +8.6263000e+09 1.63765000e-02 7.81665300e-03            nan
       50 -1    0    0    0    0 -7.7717901915e-03 +9.1303854039e-03 +5.3233255218e+00 5.3233413671e+00 4.9935713700e-03 0.0000e+00 0.0000e+00
       11 -1    0    0    0    0 -4.7612945267e-19 +5.5936216727e-19 +3.2612718622e-16 5.1100000000e-04 5.1099893000e-04 0.0000e+00 1.0000e+00
       50  1    1    2    0    0 -2.3001114464e-02 +8.9835072545e-03 +5.0734855149e+00 5.0735480642e+00 4.9935713700e-03 0.0000e+00 0.0000e+00
       11  1    1    2    0    0 +1.5229324272e-02 +1.4687814943e-04 +2.4984000688e-01 2.5030430290e-01 5.1099893000e-04 0.0000e+00 1.0000e+00
<vert_displacement>
324.68758927797734
</vert_displacement>
</event>
<event>
 4   1200 +8.6263000e+09 2.08605200e-02 7.81665300e-03            nan
       50 -1    0    0    0    0 +2.6126223838e-02 +3.2603917930e-02 +1.2888999700e+01 1.2889068384e+01 4.9935713700e-03 0.0000e+00 0.0000e+00
       11 -1    0    0    0    0 -8.4391099586e-20 -1.0531489365e-19 -4.1633144691e-17 5.1100000000e-04 5.1099893000e-04 0.0000e+00 1.0000e+00
       50  1    1    2    0    0 +3.9735876936e-02 +4.5746463295e-02 +1.2474152827e+01 1.2474300997e+01 4.9935713700e-03 0.0000e+00 0.0000e+00
       11  1    1    2    0    0 -1.3609653098e-02 -1.3142545365e-02 +4.1484687329e-01 4.1527838682e-01 5.1099893000e-04 0.0000e+00 1.0000e+00
<vert_displacement>
242.06160522811859
</vert_displacement>
</event>
<event>
 4   1200 +8.6263000e+09 1.53043600e-02 7.81665300e-03            nan
       50 -1    0    0    0    0 +2.6145118023e-02 -1.1319190699e-02 +1.7580129883e+01 1.7580153678e+01 4.9935713700e-03 0.0000e+00 0.0000e+00
       11 -1    0    0    0    0 -9.9067097070e-19 +4.2889818387e-19 -6.6613294004e-16 5.1100000000e-04 5.1099893000e-04 0.0000e+00 1.0000e+00
       50  1    1    2    0    0 +3.9406394139e-02 -1.6201396472e-02 +1.7372871966e+01 1.7372924930e+01 4.9935713700e-03 0.0000e+00 0.0000e+00
       11  1    1    2    0    0 -1.3261276117e-02 +4.8822057737e-03 +2.0725791709e-01 2.0773974751e-01 5.1099893000e-04 0.0000e+00 1.0000e+00
<vert_displacement>
488.22002148710237
</vert_displacement>
</event>
<event>
 4   1200 +8.6263000e+09 1.34179900e-02 7.81665300e-03            nan
       50 -1    0    0    0    0 -1.5200947255e-02 -4.9664677029e-03 +2.4372650131e+01 2.4372655888e+01 4.9935713700e-03 0.0000e+00 0.0000e+00
       11 -1    0    0    0    0 +3.0293963061e-19 +9.8976719419e-20 -4.8572246872e-16 5.1100000000e-04 5.1099893000e-04 0.0000e+00 1.0000e+00
       50  1    1    2    0    0 -2.7539315011e-02 -4.2200702977e-03 +2.4219913592e+01 2.4219930131e+01 4.9935713700e-03 0.0000e+00 0.0000e+00
       11  1    1    2    0    0 +1.2338367756e-02 -7.4639740520e-04 +1.5273653860e-01 1.5323675724e-01 5.1099893000e-04 0.0000e+00 1.0000e+00
<vert_displacement>
449.38207405158852
</vert_displacement>
</event>
<event>
 4   1200 +8.6263000e+09 1.53614500e-02 7.81665300e-03            nan
       50 -1    0    0    0    0 +7.2652316953e-03 +7.6065240558e-03 +1.0672627233e+01 1.0672633585e+01 4.9935713700e-03 0.0000e+00 0.0000e+00
       11 -1    0    0    0    0 -4.6290752416e-19 -4.8465312130e-19 -6.8001127231e-16 5.1100000000e-04 5.1099893000e-04 0.0000e+00 1.0000e+00
       50  1    1    2    0    0 +1.5719836749e-02 -4.2531273501e-03 +1.0461956460e+01 1.0461970327e+01 4.9935713700e-03 0.0000e+00 0.0000e+00
       11  1    1    2    0    0 -8.4546050533e-03 +1.1859651406e-02 +2.1067077285e-01 2.1117425821e-01 5.1099893000e-04 0.0000e+00 1.0000e+00
<vert_displacement>
307.43402272952989
</vert_displacement>
</event>
<event>
 4   1200 +8.6263000e+09 1.35492200e-02 7.81665300e-03            nan
       50 -1    0    0    0    0 +1.7937490546e-02 -9.1451424280e-03 +5.1595949596e+00 5.1596366607e+00 4.9935713700e-03 0.0000e+00 0.0000e+00
       11 -1    0    0    0    0 +1.4473856623e-19 -7.3792641153e-20 +4.1633046434e-17 5.1100000000e-04 5.1099893000e-04 0.0000e+00 1.0000e+00
       50  1    1    2    0    0 +1.0455370669e-02 -1.9382028858e-02 +4.9993554864e+00 4.9994064840e+00 4.9935713700e-03 0.0000e+00 0.0000e+00
       11  1    1    2    0    0 +7.4821198773e-03 +1.0236886430e-02 +1.6023947323e-01 1.6074117663e-01 5.1099893000e-04 0.0000e+00 1.0000e+00
<vert_displacement>
98.075681509124820
</vert_displacement>
</event>
<event>
 4   1200 +8.6263000e+09 5.79555200e-02 7.81665300e-03            nan
       50 -1    0    0    0    0 -7.3704657781e-03 -6.6642237985e-03 +1.3619683028e+01 1.3619687568e+01 4.9935713700e-03 0.0000e+00 0.0000e+00
       11 -1    0    0    0    0 -7.6603432939e-19 -6.9263250955e-19 +1.4155339797e-15 5.1100000000e-04 5.1099893000e-04 0.0000e+00 1.0000e+00
       50  1    1    2    0    0 -2.9919199307e-02 +4.8385662768e-02 +5.4589521329e+00 5.4592508328e+00 4.9935713700e-03 0.0000e+00 0.0000e+00
       11  1    1    2    0    0 +2.2548733529e-02 -5.5049886567e-02 +8.1607308950e+00 8.1609477352e+00 5.1099893000e-04 0.0000e+00 1.0000e+00
<vert_displacement>
227.26355580991529
</vert_displacement>
</event>
<event>
 4   1200 +8.6263000e+09 9.14643100e-03 7.81665300e-03            nan
       50 -1    0    0    0    0 +2.8833011998e-02 -1.6052793621e-02 +8.7809782248e+00 8.7810416554e+00 4.9935713700e-03 0.0000e+00 0.0000e+00
       11 -1    0    0    0    0 +2.6657545212e-18 -1.4841601417e-18 +8.1184485355e-16 5.1100000000e-04 5.1099893000e-04 0.0000e+00 1.0000e+00
       50  1    1    2    0    0 +3.4424412065e-02 -2.0976649958e-02 +8.7231076478e+00 8.7232022234e+00 4.9935713700e-03 0.0000e+00 0.0000e+00
       11  1    1    2    0    0 -5.5914000665e-03 +4.9238563372e-03 +5.7870577000e-02 5.8350432030e-02 5.1099893000e-04 0.0000e+00 1.0000e+00
<vert_displacement>
430.72956993535826
</vert_displacement>
</event>
<event>
 4   1200 +8.6263000e+09 2.48479500e-02 7.81665300e-03            nan
       50 -1    0    0    0    0 +5.4102920097e-03 -5.6342580416e-02 +3.3782479791e+01 3.3782527577e+01 4.9935713700e-03 0.0000e+00 0.0000e+00
       11 -1    0    0    0    0 -1.0979328074e-18 +1.1433831553e-17 -6.8556175545e-15 5.1100000000e-04 5.1099893000e-04 0.0000e+00 1.0000e+00
       50  1    1    2    0    0 -1.5919754144e-02 -6.7255379946e-02 +3.3192411302e+01 3.3192483632e+01 4.9935713700e-03 0.0000e+00 0.0000e+00
       11  1    1    2    0    0 +2.1330046154e-02 +1.0912799530e-02 +5.9006848948e-01 5.9055494533e-01 5.1099893000e-04 0.0000e+00 1.0000e+00
<vert_displacement>
221.66414379395286
</vert_displacement>
</event>
<event>
 4   1200 +8.6263000e+09 2.60358200e-02 7.81665300e-03            nan
       50 -1    0    0    0    0 +1.5146104962e-02 +3.7789744037e-03 +6.3614331134e+00 6.3614542266e+00 4.9935713700e-03 0.0000e+00 0.0000e+00
       11 -1    0    0    0    0 +3.3041893889e-20 +8.2439988082e-21 +1.3877746024e-17 5.1100000000e-04 5.1099893000e-04 0.0000e+00 1.0000e+00
       50  1    1    2    0    0 +1.0188523999e-02 -2.1995360659e-02 +5.6405201373e+00 5.6405744351e+00 4.9935713700e-03 0.0000e+00 0.0000e+00
       11  1    1    2    0    0 +4.9575809626e-03 +2.5774335063e-02 +7.2091297602e-01 7.2139079151e-01 5.1099893000e-04 0.0000e+00 1.0000e+00
<vert_displacement>
271.70793562568105
</vert_displacement>
</event>
<event>
 4   1200 +8.6263000e+09 9.21582200e-03 7.81665300e-03            nan
       50 -1    0    0    0    0 -1.0931846031e-02 -6.5323170070e-03 +5.1873977772e+00 5.1874158124e+00 4.9935713700e-03 0.0000e+00 0.0000e+00
       11 -1    0    0    0    0 -3.0708046379e-19 -1.8349571796e-19 +1.4571633288e-16 5.1100000000e-04 5.1099893000e-04 0.0000e+00 1.0000e+00
       50  1    1    2    0    0 -3.2133862071e-03 -4.9287506061e-03 +5.1280227626e+00 5.1280285694e+00 4.9935713700e-03 0.0000e+00 0.0000e+00
       11  1    1    2    0    0 -7.7184598240e-03 -1.6035664009e-03 +5.9375014507e-02 5.9898243003e-02 5.1099893000e-04 0.0000e+00 1.0000e+00
<vert_displacement>
240.53871099846236
</vert_displacement>
</event>
<event>
 4   1200 +8.6263000e+09 9.30640100e-03 7.81665300e-03            nan
       50 -1    0    0    0    0 -3.3556225944e-03 +3.0015970475e-02 +1.2550826799e+01 1.2550864133e+01 4.9935713700e-03 0.0000e+00 0.0000e+00
       11 -1    0    0    0    0 -1.2615331755e-19 +1.1284386573e-18 +4.7184341924e-16 5.1100000000e-04 5.1099893000e-04 0.0000e+00 1.0000e+00
       50  1    1    2    0    0 -8.9232865284e-03 +2.4348848093e-02 +1.2490196915e+01 1.2490224834e+01 4.9935713700e-03 0.0000e+00 0.0000e+00
       11  1    1    2    0    0 +5.5676639340e-03 +5.6671223820e-03 +6.0629883375e-02 6.1150298738e-02 5.1099893000e-04 0.0000e+00 1.0000e+00
<vert_displacement>
273.73509392650743
</vert_displacement>
</event>
<event>
 4   1200 +8.6263000e+09 1.35104500e-02 7.81665300e-03            nan
       50 -1    0    0    0    0 -3.1746567444e-02 -3.1312650891e-02 +1.4705606107e+01 1.4705674559e+01 4.9935713700e-03 0.0000e+00 0.0000e+00
       11 -1    0    0    0    0 -1.4530274886e-18 -1.4331673043e-18 +6.7306961446e-16 5.1100000000e-04 5.1099893000e-04 0.0000e+00 1.0000e+00
       50  1    1    2    0    0 -3.9501453763e-02 -2.1382531201e-02 +1.4549745806e+01 1.4549815997e+01 4.9935713700e-03 0.0000e+00 0.0000e+00
       11  1    1    2    0    0 +7.7548863196e-03 -9.9301196897e-03 +1.5586030091e-01 1.5636956244e-01 5.1099893000e-04 0.0000e+00 1.0000e+00
<vert_displacement>
333.05300399765673
</vert_displacement>
</event>
<event>
 4   1200 +8.6263000e+09 2.31214100e-02 7.81665300e-03            nan
       50 -1    0    0    0    0 -5.8884015813e-02 -5.7532517594e-04 +2.2494320098e+01 2.2494397730e+01 4.9935713700e-03 0.0000e+00 0.0000e+00
       11 -1    0    0    0    0 -6.6117236395e-18 -6.4599722244e-20 +2.5257487264e-15 5.1100000000e-04 5.1099893000e-04 0.0000e+00 1.0000e+00
       50  1    1    2    0    0 -8.0106884389e-02 +3.1341471186e-04 +2.1983970166e+01 2.1984116685e+01 4.9935713700e-03 0.0000e+00 0.0000e+00
       11  1    1    2    0    0 +2.1222868576e-02 -8.8873988781e-04 +5.1034993166e-01 5.1079204562e-01 5.1099893000e-04 0.0000e+00 1.0000e+00
<vert_displacement>
287.23412826982235
</vert_displacement>
</event>
<event>
 4   1200 +8.6263000e+09 7.08942400e-03 7.81665300e-03            nan
       50 -1    0    0    0    0 +9.4368334636e-03 -7.0644344597e-03 +3.5064955250e+00 3.5065188952e+00 4.9935713700e-03 0.0000e+00 0.0000e+00
       11 -1    0    0    0    0 +1.5873025746e-19 -1.1882582276e-19 +5.8980264896e-17 5.1100000000e-04 5.1099893000e-04 0.0000e+00 1.0000e+00
       50  1    1    2    0    0 +5.8525757814e-03 -3.4149734551e-03 +3.4815507985e+00 3.4815609736e+00 4.9935713700e-03 0.0000e+00 0.0000e+00
       11  1    1    2    0    0 +3.5842576822e-03 -3.6494610046e-03 +2.4944726536e-02 2.5468921662e-02 5.1099893000e-04 0.0000e+00 1.0000e+00
<vert_displacement>
485.81588611629718
</vert_displacement>
</event>
<event>
 4   1200 +8.6263000e+09 1.65007800e-02 7.81665300e-03            nan
       50 -1    0    0    0    0 +2.4771282119e-02 -8.4737117547e-04 +9.9958705550e+00 9.9959025316e+00 4.9935713700e-03 0.0000e+00 0.0000e+00
       11 -1    0    0    0    0 +4.1269386786e-19 -1.4117351142e-20 +1.6653294174e-16 5.1100000000e-04 5.1099893000e-04 0.0000e+00 1.0000e+00
       50  1    1    2    0    0 +3.4109861431e-02 -1.3002688539e-02 +9.7476396307e+00 9.7477092621e+00 4.9935713700e-03 0.0000e+00 0.0000e+00
       11  1    1    2    0    0 -9.3385793118e-03 +1.2155317364e-02 +2.4823092425e-01 2.4870426952e-01 5.1099893000e-04 0.0000e+00 1.0000e+00
<vert_displacement>
488.82581066516207
</vert_displacement>
</event>
<event>
 4   1200 +8.6263000e+09 1.27934900e-02 7.81665300e-03            nan
       50 -1    0    0    0    0 +1.8081563634e-03 +4.8085700338e-03 +1.1240375833e+01 1.1240378116e+01 4.9935713700e-03 0.0000e+00 0.0000e+00
       11 -1    0    0    0    0 -6.4740097175e-20 -1.7216834648e-19 -4.0245580439e-16 5.1100000000e-04 5.1099893000e-04 0.0000e+00 1.0000e+00
       50  1    1    2    0    0 +1.4466680755e-03 +1.6523579118e-02 +1.1102929327e+01 1.1102942840e+01 4.9935713700e-03 0.0000e+00 0.0000e+00
       11  1    1    2    0    0 +3.6148828781e-04 -1.1715009084e-02 +1.3744650547e-01 1.3794627613e-01 5.1099893000e-04 0.0000e+00 1.0000e+00
<vert_displacement>
463.79201487784815
</vert_displacement>
</event>
<event>
 4   1200 +8.6263000e+09 1.17162300e-02 7.81665300e-03            nan
       50 -1    0    0    0    0 -5.0225519545e-02 +1.3003446119e-02 +1.6932108924e+01 1.6932189145e+01 4.9935713700e-03 0.0000e+00 0.0000e+00
       11 -1    0    0    0    0 +2.7169116994e-18 -7.0341163642e-19 -9.1592969565e-16 5.1100000000e-04 5.1099893000e-04 0.0000e+00 1.0000e+00
       50  1    1    2    0    0 -4.0351460693e-02 +8.3130707257e-03 +1.6821497889e+01 1.6821549081e+01 4.9935713700e-03 0.0000e+00 0.0000e+00
       11  1    1    2    0    0 -9.8740588516e-03 +4.6903753935e-03 +1.1061103550e-01 1.1115106367e-01 5.1099893000e-04 0.0000e+00 1.0000e+00
<vert_displacement>
209.40044473343457
</vert_displacement>
</event>
<event>
 4   1200 +8.6263000e+09 6.57364000e-03 7.81665300e-03            nan
       50 -1    0    0    0    0 +5.4608622671e-02 -1.0058346043e-02 +1.7390021555e+01 1.7390110922e+01 4.9935713700e-03 0.0000e+00 0.0000e+00
       11 -1    0    0    0    0 +1.7431675107e-18 -3.2107350772e-19 +5.5510868249e-16 5.1100000000e-04 5.1099893000e-04 0.0000e+00 1.0000e+00
       50  1    1    2    0    0 +5.7799530522e-02 -7.2671490541e-03 +1.7372110533e+01 1.7372208924e+01 4.9935713700e-03 0.0000e+00 0.0000e+00
       11  1    1    2    0    0 -3.1909078505e-03 -2.7911969888e-03 +1.7911021727e-02 1.8412997930e-02 5.1099893000e-04 0.0000e+00 1.0000e+00
<vert_displacement>
278.56125379983695
</vert_displacement>
</event>
<event>
 4   1200 +8.6263000e+09 1.13990500e-02 7.81665300e-03            nan
       50 -1    0    0    0    0 +7.4894027518e-03 -5.8101674950e-04 +4.1577192823e+00 4.1577290670e+00 4.9935713700e-03 0.0000e+00 0.0000e+00
       11 -1    0    0    0    0 -8.8744185822e-19 +6.8846422194e-20 -4.9266066308e-16 5.1100000000e-04 5.1099893000e-04 0.0000e+00 1.0000e+00
       50  1    1    2    0    0 +1.6396293970e-02 +4.1506990973e-03 +4.0522591504e+00 4.0522975242e+00 4.9935713700e-03 0.0000e+00 0.0000e+00
       11  1    1    2    0    0 -8.9068912181e-03 -4.7317158468e-03 +1.0546013186e-01 1.0594254281e-01 5.1099893000e-04 0.0000e+00 1.0000e+00
<vert_displacement>
452.86428336617837
</vert_displacement>
</event>
<event>
 4   1200 +8.6263000e+09 1.59380800e-02 7.81665300e-03            nan
       50 -1    0    0    0    0 -2.8056040476e-02 +1.0786379942e-02 +8.9852938156e+00 8.9853454789e+00 4.9935713700e-03 0.0000e+00 0.0000e+00
       11 -1    0    0    0    0 +2.5782728478e-18 -9.9123860882e-19 -8.2572375436e-16 5.1100000000e-04 5.1099893000e-04 0.0000e+00 1.0000e+00
       50  1    1    2    0    0 -1.3204901730e-02 +1.5927822886e-02 +8.7552576041e+00 8.7552834743e+00 4.9935713700e-03 0.0000e+00 0.0000e+00
       11  1    1    2    0    0 -1.4851138746e-02 -5.1414429444e-03 +2.3003621150e-01 2.3057300466e-01 5.1099893000e-04 0.0000e+00 1.0000e+00
<vert_displacement>
120.21171508518903
</vert_displacement>
</event>
<event>
 4   1200 +8.6263000e+09 2.67632700e-02 7.81665300e-03            nan
       50 -1    0    0    0    0 +1.2536708539e-03 -8.8342868580e-04 +4.5352464954e+00 4.5352495038e+00 4.9935713700e-03 0.0000e+00 0.0000e+00
       11 -1    0    0    0    0 -4.2198356420e-20 +2.9736065442e-20 -1.5265565716e-16 5.1100000000e-04 5.1099893000e-04 0.0000e+00 1.0000e+00
       50  1    1    2    0    0 -2.2257817240e-02 -1.2939499962e-02 +3.7064535070e+00 3.7065462869e+00 4.9935713700e-03 0.0000e+00 0.0000e+00
       11  1    1    2    0    0 +2.3511488094e-02 +1.2056071276e-02 +8.2879298837e-01 8.2921421696e-01 5.1099893000e-04 0.0000e+00 1.0000e+00
<vert_displacement>
324.46988292105459
</vert_displacement>
</event>
<event>
 4   1200 +8.6263000e+09 5.85708400e-03 7.81665300e-03            nan
       50 -1    0    0    0    0 +1.0381949001e-02 -2.4332995659e-03 +3.0774236547e+00 3.0774461802e+00 4.9935713700e-03 0.0000e+00 0.0000e+00
       11 -1    0    0    0    0 +2.2238364732e-19 -5.2121815703e-20 +6.5919096367e-17 5.1100000000e-04 5.1099893000e-04 0.0000e+00 1.0000e+00
       50  1    1    2    0    0 +7.9879543050e-03 -4.3717980204e-03 +3.0682329241e+00 3.0682505002e+00 4.9935713700e-03 0.0000e+00 0.0000e+00
       11  1    1    2    0    0 +2.3939946964e-03 +1.9384984545e-03 +9.1907306403e-03 9.7066799924e-03 5.1099893000e-04 0.0000e+00 1.0000e+00
<vert_displacement>
97.164498920483453
</vert_displacement>
</event>
<event>
 4   1200 +8.6263000e+09 2.00705800e-02 7.81665300e-03            nan
       50 -1    0    0    0    0 +3.2525550608e-04 +1.4305905512e-03 +2.2830682728e+00 2.2830742052e+00 4.9935713700e-03 0.0000e+00 0.0000e+00
       11 -1    0    0    0    0 +1.6805244573e-20 +7.3915502266e-20 +1.1796117201e-16 5.1100000000e-04 5.1099893000e-04 0.0000e+00 1.0000e+00
       50  1    1    2    0    0 -1.4106527165e-02 +1.4235476777e-02 +1.8171257521e+00 1.8172431256e+00 4.9935713700e-03 0.0000e+00 0.0000e+00
       11  1    1    2    0    0 +1.4431782671e-02 -1.2804886226e-02 +4.6594252065e-01 4.6634207952e-01 5.1099893000e-04 0.0000e+00 1.0000e+00
<vert_displacement>
142.51323006498916
</vert_displacement>
</event>
<event>
 4   1200 +8.6263000e+09 6.86409300e-02 7.81665300e-03            nan
       50 -1    0    0    0    0 -1.4506383226e-01 -1.0769885426e-02 +4.3158213697e+01 4.3158459124e+01 4.9935713700e-03 0.0000e+00 0.0000e+00
       11 -1    0    0    0    0 +2.7054621028e-18 +2.0085996916e-19 -8.0490712099e-16 5.1100000000e-04 5.1099893000e-04 0.0000e+00 1.0000e+00
       50  1    1    2    0    0 -1.9594049536e-01 -6.9161005816e-03 +3.7941286411e+01 3.7941793315e+01 4.9935713700e-03 0.0000e+00 0.0000e+00
       11  1    1    2    0    0 +5.0876663106e-02 -3.8537848449e-03 +5.2169272857e+00 5.2171768086e+00 5.1099893000e-04 0.0000e+00 1.0000e+00
<vert_displacement>
72.802122687898617
</vert_displacement>
</event>
<event>
 4   1200 +8.6263000e+09 1.27633600e-02 7.81665300e-03            nan
       50 -1    0    0    0    0 +1.6560815324e-02 -9.4012317518e-03 +6.3722625178e+00 6.3722929291e+00 4.9935713700e-03 0.0000e+00 0.0000e+00
       11 -1    0    0    0    0 -1.2623343582e-18 +7.1660106202e-19 -4.8572040433e-16 5.1100000000e-04 5.1099893000e-04 0.0000e+00 1.0000e+00
       50  1    1    2    0    0 +2.7928654442e-02 -9.8726226773e-03 +6.2342228893e+00 6.2342952647e+00 4.9935713700e-03 0.0000e+00 0.0000e+00
       11  1    1    2    0    0 -1.1367839117e-02 +4.7139092550e-04 +1.3803962850e-01 1.3850866446e-01 5.1099893000e-04 0.0000e+00 1.0000e+00
<vert_displacement>
276.01788511326532
</vert_displacement>
</event>
<event>
 4   1200 +8.6263000e+09 1.02226700e-02 7.81665300e-03            nan
       50 -1    0    0    0    0 -3.5952750383e-02 +2.8995093286e-02 +1.4771141037e+01 1.4771214094e+01 4.9935713700e-03 0.0000e+00 0.0000e+00
       11 -1    0    0    0    0 +4.0533811204e-19 -3.2689616916e-19 -1.6653263956e-16 5.1100000000e-04 5.1099893000e-04 0.0000e+00 1.0000e+00
       50  1    1    2    0    0 -2.7215539476e-02 +2.6287936584e-02 +1.4692894759e+01 1.4692944329e+01 4.9935713700e-03 0.0000e+00 0.0000e+00
       11  1    1    2    0    0 -8.7372109074e-03 +2.7071567017e-03 +7.8246278764e-02 7.8780764227e-02 5.1099893000e-04 0.0000e+00 1.0000e+00
<vert_displacement>
491.39167686626490
</vert_displacement>
</event>
<event>
 4   1200 +8.6263000e+09 3.61297200e-02 7.81665300e-03            nan
       50 -1    0    0    0    0 -2.1738475736e-02 -1.0530861582e-02 +1.0720790283e+01 1.0720818657e+01 4.9935713700e-03 0.0000e+00 0.0000e+00
       11 -1    0    0    0    0 -3.6441076441e-18 -1.7653304516e-18 +1.7971689595e-15 5.1100000000e-04 5.1099893000e-04 0.0000e+00 1.0000e+00
       50  1    1    2    0    0 +5.7891678305e-03 +1.6888860554e-02 +9.2715916787e+00 9.2716102129e+00 4.9935713700e-03 0.0000e+00 0.0000e+00
       11  1    1    2    0    0 -2.7527643566e-02 -2.7419722136e-02 +1.4491986040e+00 1.4497194443e+00 5.1099893000e-04 0.0000e+00 1.0000e+00
<vert_displacement>
2.6456126609706886E-003
</vert_displacement>
</event>
<event>
 4   1200 +8.6263000e+09 1.30506500e-02 7.81665300e-03            nan
       50 -1    0    0    0    0 +1.2142907677e-02 -3.6868387348e-02 +2.2823131291e+01 2.2823164846e+01 4.9935713700e-03 0.0000e+00 0.0000e+00
       11 -1    0    0    0    0 -7.4574174219e-19 +2.2642266699e-18 -1.4016545414e-15 5.1100000000e-04 5.1099893000e-04 0.0000e+00 1.0000e+00
       50  1    1    2    0    0 +2.3366364905e-02 -4.0844530271e-02 +2.2679962390e+01 2.2680011755e+01 4.9935713700e-03 0.0000e+00 0.0000e+00
       11  1    1    2    0    0 -1.1223457228e-02 +3.9761429231e-03 +1.4316890154e-01 1.4366409152e-01 5.1099893000e-04 0.0000e+00 1.0000e+00
<vert_displacement>
125.29480697097340
</vert_displacement>
</event>
<event>
 4   1200 +8.6263000e+09 1.67392800e-02 7.81665300e-03            nan
       50 -1    0    0    0    0 -5.1672797813e-02 +1.1856935275e-02 +2.2514153950e+01 2.2514216924e+01 4.9935713700e-03 0.0000e+00 0.0000e+00
       11 -1    0    0    0    0 -1.5925584788e-18 +3.6543139919e-19 +6.9388746661e-16 5.1100000000e-04 5.1099893000e-04 0.0000e+00 1.0000e+00
       50  1    1    2    0    0 -3.6492381795e-02 +5.2363699692e-03 +2.2261575605e+01 2.2261606691e+01 4.9935713700e-03 0.0000e+00 0.0000e+00
       11  1    1    2    0    0 -1.5180416019e-02 +6.6205653055e-03 +2.5257834519e-01 2.5312123280e-01 5.1099893000e-04 0.0000e+00 1.0000e+00
<vert_displacement>
167.56877567373994
</vert_displacement>
</event>
<event>
 4   1200 +8.6263000e+09 2.65003300e-02 7.81665300e-03            nan
       50 -1    0    0    0    0 +7.8721727371e-02 -8.3225056300e-03 +2.5475402610e+01 2.5475526088e+01 4.9935713700e-03 0.0000e+00 0.0000e+00
       11 -1    0    0    0    0 -7.2902198660e-19 +7.7072617567e-20 -2.3592125377e-16 5.1100000000e-04 5.1099893000e-04 0.0000e+00 1.0000e+00
       50  1    1    2    0    0 +9.2096587969e-02 -2.9021892855e-02 +2.4794366161e+01 2.4794554691e+01 4.9935713700e-03 0.0000e+00 0.0000e+00
       11  1    1    2    0    0 -1.3374860598e-02 +2.0699387225e-02 +6.8103644911e-01 6.8148239718e-01 5.1099893000e-04 0.0000e+00 1.0000e+00
<vert_displacement>
260.71719032072025
</vert_displacement>
</event>
<event>
 4   1200 +8.6263000e+09 2.14038600e-02 7.81665300e-03            nan
       50 -1    0    0    0    0 +3.2597490999e-02 -3.5403374456e-02 +1.4732763483e+01 1.4732842929e+01 4.9935713700e-03 0.0000e+00 0.0000e+00
       11 -1    0    0    0    0 +1.7809260098e-18 -1.9342221892e-18 +8.0490739864e-16 5.1100000000e-04 5.1099893000e-04 0.0000e+00 1.0000e+00
       50  1    1    2    0    0 +4.9031576264e-02 -2.2934041092e-02 +1.4295900980e+01 1.4296004331e+01 4.9935713700e-03 0.0000e+00 0.0000e+00
       11  1    1    2    0    0 -1.6434085265e-02 -1.2469333364e-02 +4.3686250223e-01 4.3734959747e-01 5.1099893000e-04 0.0000e+00 1.0000e+00
<vert_displacement>
447.15625187708264
</vert_displacement>
</event>
<event>
 4   1200 +8.6263000e+09 1.16319900e-02 7.81665300e-03            nan
       50 -1    0    0    0    0 +9.9496117237e-04 -3.1245986662e-04 +3.3319331068e+00 3.3319370120e+00 4.9935713700e-03 0.0000e+00 0.0000e+00
       11 -1    0    0    0    0 +5.1801232603e-20 -1.6267776753e-20 +1.7347233910e-16 5.1100000000e-04 5.1099893000e-04 0.0000e+00 1.0000e+00
       50  1    1    2    0    0 +5.3525027718e-03 -9.8459415514e-03 +3.2201450006e+00 3.2201683733e+00 4.9935713700e-03 0.0000e+00 0.0000e+00
       11  1    1    2    0    0 -4.3575415994e-03 +9.5334816848e-03 +1.1178810625e-01 1.1227963867e-01 5.1099893000e-04 0.0000e+00 1.0000e+00
<vert_displacement>
234.71337216400369
</vert_displacement>
</event>
<event>
 4   1200 +8.6263000e+09 2.11243400e-02 7.81665300e-03            nan
       50 -1    0    0    0    0 -1.3191424266e-04 -1.6894433287e-03 +1.9740744329e+00 1.9740814760e+00 4.9935713700e-03 0.0000e+00 0.0000e+00
       11 -1    0    0    0    0 +1.0896477190e-20 +1.3955263907e-19 -1.6306394666e-16 5.1100000000e-04 5.1099893000e-04 0.0000e+00 1.0000e+00
       50  1    1    2    0    0 +1.3399580979e-02 +1.4285647925e-02 +1.3819740727e+00 1.3821218838e+00 4.9935713700e-03 0.0000e+00 0.0000e+00
       11  1    1    2    0    0 -1.3531495221e-02 -1.5975091254e-02 +5.9210036025e-01 5.9247059221e-01 5.1099893000e-04 0.0000e+00 1.0000e+00
<vert_displacement>
422.36045663329844
</vert_displacement>
</event>
<event>
 4   1200 +8.6263000e+09 1.23286700e-02 7.81665300e-03            nan
       50 -1    0    0    0    0 +2.4937428102e-02 -8.7886753994e-03 +9.3774136481e+00 9.3774522542e+00 4.9935713700e-03 0.0000e+00 0.0000e+00
       11 -1    0    0    0    0 +3.8934944802e-18 -1.3721807644e-18 +1.4641007937e-15 5.1100000000e-04 5.1099893000e-04 0.0000e+00 1.0000e+00
       50  1    1    2    0    0 +3.4501175333e-02 -3.2787332265e-03 +9.2513626409e+00 9.2514289021e+00 4.9935713700e-03 0.0000e+00 0.0000e+00
       11  1    1    2    0    0 -9.5637472308e-03 -5.5099421730e-03 +1.2605100720e-01 1.2653435209e-01 5.1099893000e-04 0.0000e+00 1.0000e+00
<vert_displacement>
49.369587304106922
</vert_displacement>
</event>
<event>
 4   1200 +8.6263000e+09 1.58012500e-02 7.81665300e-03            nan
       50 -1    0    0    0    0 +6.4627959701e-03 -5.5432762955e-03 +1.0984552594e+01 1.0984557029e+01 4.9935713700e-03 0.0000e+00 0.0000e+00
       11 -1    0    0    0    0 +6.2054285224e-19 -5.3225268120e-19 +1.0547115565e-15 5.1100000000e-04 5.1099893000e-04 0.0000e+00 1.0000e+00
       50  1    1    2    0    0 -5.7723589459e-03 +3.4164737240e-03 +1.0760049044e+01 1.0760052294e+01 4.9935713700e-03 0.0000e+00 0.0000e+00
       11  1    1    2    0    0 +1.2235154916e-02 -8.9597500195e-03 +2.2450354981e-01 2.2501573530e-01 5.1099893000e-04 0.0000e+00 1.0000e+00
<vert_displacement>
347.72525743012778
</vert_displacement>
</event>
<event>
 4   1200 +8.6263000e+09 2.01686900e-02 7.81665300e-03            nan
       50 -1    0    0    0    0 -9.5573148300e-03 -1.5377511016e-04 +6.0994672916e+00 6.0994768253e+00 4.9935713700e-03 0.0000e+00 0.0000e+00
       11 -1    0    0    0    0 +5.1101253986e-19 +8.2220802610e-21 -3.2612761302e-16 5.1100000000e-04 5.1099893000e-04 0.0000e+00 1.0000e+00
       50  1    1    2    0    0 -1.2078558179e-02 -1.9429186273e-02 +5.6994767298e+00 5.6995248323e+00 4.9935713700e-03 0.0000e+00 0.0000e+00
       11  1    1    2    0    0 +2.5212433494e-03 +1.9275411163e-02 +3.9999056180e-01 4.0046299303e-01 5.1099893000e-04 0.0000e+00 1.0000e+00
<vert_displacement>
479.16277475710353
</vert_displacement>
</event>
<event>
 4   1200 +8.6263000e+09 2.90139000e-02 7.81665300e-03            nan
       50 -1    0    0    0    0 -4.1998936080e-02 -1.7124530253e-02 +1.9660995657e+01 1.9661048607e+01 4.9935713700e-03 0.0000e+00 0.0000e+00
       11 -1    0    0    0    0 -3.1127279689e-18 -1.2691751089e-18 +1.4571638425e-15 5.1100000000e-04 5.1099893000e-04 0.0000e+00 1.0000e+00
       50  1    1    2    0    0 -1.2100606244e-02 -2.1536465488e-02 +1.8826257984e+01 1.8826274853e+01 4.9935713700e-03 0.0000e+00 0.0000e+00
       11  1    1    2    0    0 -2.9898329836e-02 +4.4119352343e-03 +8.3473767322e-01 8.3528475354e-01 5.1099893000e-04 0.0000e+00 1.0000e+00
<vert_displacement>
226.60004293422438
</vert_displacement>
</event>
<event>
 4   1200 +8.6263000e+09 2.45600000e-02 7.81665300e-03            nan
       50 -1    0    0    0    0 +3.2274560421e-03 -2.1686582629e-03 +5.7230096051e+00 5.7230131046e+00 4.9935713700e-03 0.0000e+00 0.0000e+00
       11 -1    0    0    0    0 -4.5392489024e-19 +3.0501049468e-19 -8.0491150707e-16 5.1100000000e-04 5.1099893000e-04 0.0000e+00 1.0000e+00
       50  1    1    2    0    0 -9.6839249372e-03 +1.8583788169e-02 +5.0859455759e+00 5.0859911986e+00 4.9935713700e-03 0.0000e+00 0.0000e+00
       11  1    1    2    0    0 +1.2911380979e-02 -2.0752446432e-02 +6.3706402921e-01 6.3753290599e-01 5.1099893000e-04 0.0000e+00 1.0000e+00
<vert_displacement>
146.77967538767723
</vert_displacement>
</event>
<event>
 4   1200 +8.6263000e+09 1.09583300e-02 7.81665300e-03            nan
       50 -1    0    0    0    0 -1.7675598093e-02 +3.5810232123e-02 +1.5739968697e+01 1.5740020150e+01 4.9935713700e-03 0.0000e+00 0.0000e+00
       11 -1    0    0    0    0 -9.6623060217e-19 +1.9575542488e-18 +8.6042007473e-16 5.1100000000e-04 5.1099893000e-04 0.0000e+00 1.0000e+00
       50  1    1    2    0    0 -7.8203307564e-03 +3.5305752482e-02 +1.5646318364e+01 1.5646360948e+01 4.9935713700e-03 0.0000e+00 0.0000e+00
       11  1    1    2    0    0 -9.8552673370e-03 +5.0447964065e-04 +9.3650333399e-02 9.4170201548e-02 5.1099893000e-04 0.0000e+00 1.0000e+00
<vert_displacement>
362.41057931357562
</vert_displacement>
</event>
<event>
 4   1200 +8.6263000e+09 4.93651400e-02 7.81665300e-03            nan
       50 -1    0    0    0    0 +7.8105406171e-03 +3.4513840045e-02 +2.1638418450e+01 2.1638447961e+01 4.9935713700e-03 0.0000e+00 0.0000e+00
       11 -1    0    0    0    0 +4.3580729420e-19 +1.9257800426e-18 +1.2073659248e-15 5.1100000000e-04 5.1099893000e-04 0.0000e+00 1.0000e+00
       50  1    1    2    0    0 +3.0177135684e-02 +7.3424201955e-02 +1.8941820099e+01 1.8941987102e+01 4.9935713700e-03 0.0000e+00 0.0000e+00
       11  1    1    2    0    0 -2.2366595067e-02 -3.8910361910e-02 +2.6965983506e+00 2.6969718587e+00 5.1099893000e-04 0.0000e+00 1.0000e+00
<vert_displacement>
324.97440520619915
</vert_displacement>
</event>
<event>
 4   1200 +8.6263000e+09 1.87750000e-02 7.81665300e-03            nan
       50 -1    0    0    0    0 -2.2178442573e-03 +3.0065211259e-02 +1.2217568212e+01 1.2217606427e+01 4.9935713700e-03 0.0000e+00 0.0000e+00
       11 -1    0    0    0    0 +5.0384295401e-20 -6.8301210979e-19 -2.7755491120e-16 5.1100000000e-04 5.1099893000e-04 0.0000e+00 1.0000e+00
       50  1    1    2    0    0 +8.9188710996e-03 +1.4941430214e-02 +1.1888179387e+01 1.1888193170e+01 4.9935713700e-03 0.0000e+00 0.0000e+00
       11  1    1    2    0    0 -1.1136715357e-02 +1.5123781045e-02 +3.2938882576e-01 3.2992425621e-01 5.1099893000e-04 0.0000e+00 1.0000e+00
<vert_displacement>
293.50036325290370
</vert_displacement>
</event>
<event>
 4   1200 +8.6263000e+09 4.20706800e-02 7.81665300e-03            nan
       50 -1    0    0    0    0 +2.2141695792e-03 -2.6966228126e-02 +1.3257330424e+01 1.3257358975e+01 4.9935713700e-03 0.0000e+00 0.0000e+00
       11 -1    0    0    0    0 -3.2449063920e-20 +3.9519505117e-19 -1.9428862467e-16 5.1100000000e-04 5.1099893000e-04 0.0000e+00 1.0000e+00
       50  1    1    2    0    0 -1.4092771546e-02 -6.1469326098e-02 +1.1243224758e+01 1.1243402731e+01 4.9935713700e-03 0.0000e+00 0.0000e+00
       11  1    1    2    0    0 +1.6306941125e-02 +3.4503097972e-02 +2.0141056661e+00 2.0144672436e+00 5.1099893000e-04 0.0000e+00 1.0000e+00
<vert_displacement>
318.08171356218259
</vert_displacement>
</event>
<event>
 4   1200 +8.6263000e+09 5.51065500e-03 7.81665300e-03            nan
       50 -1    0    0    0    0 -4.1473998913e-03 -1.8504413951e-03 +4.3508092530e+00 4.3508144889e+00 4.9935713700e-03 0.0000e+00 0.0000e+00
       11 -1    0    0    0    0 +4.1009792184e-19 +1.8297299284e-19 -4.3021118767e-16 5.1100000000e-04 5.1099893000e-04 0.0000e+00 1.0000e+00
       50  1    1    2    0    0 -1.8998926692e-03 -2.4830389873e-03 +4.3454893101e+00 4.3454933040e+00 4.9935713700e-03 0.0000e+00 0.0000e+00
       11  1    1    2    0    0 -2.2475072221e-03 +6.3259759222e-04 +5.3199428938e-03 5.8321849017e-03 5.1099893000e-04 0.0000e+00 1.0000e+00
<vert_displacement>
127.66536574705383
</vert_displacement>
</event>
<event>
 4   1200 +8.6263000e+09 1.49977600e-02 7.81665300e-03            nan
       50 -1    0    0    0    0 -1.3203437112e-02 -4.0127567571e-03 +5.1327440914e+00 5.1327650712e+00 4.9935713700e-03 0.0000e+00 0.0000e+00
       11 -1    0    0    0    0 +9.1032452487e-19 +2.7666363368e-19 -3.5388231010e-16 5.1100000000e-04 5.1099893000e-04 0.0000e+00 1.0000e+00
       50  1    1    2    0    0 -7.7303148880e-03 -1.7101292173e-02 +4.9289021367e+00 4.9289403953e+00 4.9935713700e-03 0.0000e+00 0.0000e+00
       11  1    1    2    0    0 -5.4731222235e-03 +1.3088535416e-02 +2.0384195473e-01 2.0433567592e-01 5.1099893000e-04 0.0000e+00 1.0000e+00
<vert_displacement>
117.01640310318655
</vert_displacement>
</event>
<event>
 4   1200 +8.6263000e+09 1.48827300e-02 7.81665300e-03            nan
       50 -1    0    0    0    0 +8.7810105027e-04 +4.9270879872e-03 +5.8197261547e+00 5.8197304490e+00 4.9935713700e-03 0.0000e+00 0.0000e+00
       11 -1    0    0    0    0 -5.9676987156e-20 -3.3485185611e-19 -3.9551680627e-16 5.1100000000e-04 5.1099893000e-04 0.0000e+00 1.0000e+00
       50  1    1    2    0    0 +1.3926169804e-02 -2.9353775246e-04 +5.6205369137e+00 5.6205563922e+00 4.9935713700e-03 0.0000e+00 0.0000e+00
       11  1    1    2    0    0 -1.3048068753e-02 +5.2206257397e-03 +1.9918924101e-01 1.9968505674e-01 5.1099893000e-04 0.0000e+00 1.0000e+00
<vert_displacement>
336.88530861772824
</vert_displacement>
</event>
<event>
 4   1200 +8.6263000e+09 4.80483600e-02 7.81665300e-03            nan
       50 -1    0    0    0    0 -6.1499512989e-03 +1.1251564885e-03 +1.9239976531e+01 1.9239978195e+01 4.9935713700e-03 0.0000e+00 0.0000e+00
       11 -1    0    0    0    0 -8.4283189000e-20 +1.5419923242e-20 +2.6367795443e-16 5.1100000000e-04 5.1099893000e-04 0.0000e+00 1.0000e+00
       50  1    1    2    0    0 -6.9298260777e-03 +4.8735403696e-02 +1.6658593117e+01 1.6658666595e+01 4.9935713700e-03 0.0000e+00 0.0000e+00
       11  1    1    2    0    0 +7.7987477880e-04 -4.7610247207e-02 +2.5813834143e+00 2.5818225998e+00 5.1099893000e-04 0.0000e+00 1.0000e+00
<vert_displacement>
385.79105387471026
</vert_displacement>
</event>
<event>
 4   1200 +8.6263000e+09 1.20063200e-02 7.81665300e-03            nan
       50 -1    0    0    0    0 -1.6966678077e-02 +1.3117716887e-02 +1.7535959896e+01 1.7535973721e+01 4.9935713700e-03 0.0000e+00 0.0000e+00
       11 -1    0    0    0    0 -6.9821719143e-19 +5.3982372983e-19 +7.2164442632e-16 5.1100000000e-04 5.1099893000e-04 0.0000e+00 1.0000e+00
       50  1    1    2    0    0 -1.3062125189e-02 +2.3269241259e-02 +1.7418515348e+01 1.7418536504e+01 4.9935713700e-03 0.0000e+00 0.0000e+00
       11  1    1    2    0    0 -3.9045528884e-03 -1.0151524373e-02 +1.1744454818e-01 1.1794821744e-01 5.1099893000e-04 0.0000e+00 1.0000e+00
<vert_displacement>
351.58138938140775
</vert_displacement>
</event>
<event>
 4   1200 +8.6263000e+09 1.90622300e-02 7.81665300e-03            nan
       50 -1    0    0    0    0 -5.7386145775e-02 +9.6482075332e-03 +2.0102409607e+01 2.0102494452e+01 4.9935713700e-03 0.0000e+00 0.0000e+00
       11 -1    0    0    0    0 -4.9520768470e-18 +8.3258188008e-19 +1.7347162079e-15 5.1100000000e-04 5.1099893000e-04 0.0000e+00 1.0000e+00
       50  1    1    2    0    0 -4.3817565288e-02 -3.9109047006e-03 +1.9765647530e+01 1.9765697116e+01 4.9935713700e-03 0.0000e+00 0.0000e+00
       11  1    1    2    0    0 -1.3568580487e-02 +1.3559112234e-02 +3.3676207729e-01 3.3730833627e-01 5.1099893000e-04 0.0000e+00 1.0000e+00
<vert_displacement>
385.39922778584986
</vert_displacement>
</event>
<event>
 4   1200 +8.6263000e+09 1.00660600e-02 7.81665300e-03            nan
       50 -1    0    0    0    0 +4.8544591003e-03 -1.4461649573e-02 +1.9077895705e+01 1.9077902458e+01 4.9935713700e-03 0.0000e+00 0.0000e+00
       11 -1    0    0    0    0 +2.5071991325e-19 -7.4690577295e-19 +9.8532261937e-16 5.1100000000e-04 5.1099893000e-04 0.0000e+00 1.0000e+00
       50  1    1    2    0    0 +2.9214875386e-03 -5.8767587235e-03 +1.9002859666e+01 1.9002861455e+01 4.9935713700e-03 0.0000e+00 0.0000e+00
       11  1    1    2    0    0 +1.9329715616e-03 -8.5848908500e-03 +7.5036039664e-02 7.5552002610e-02 5.1099893000e-04 0.0000e+00 1.0000e+00
<vert_displacement>
398.59000669540336
</vert_displacement>
</event>
<event>
 4   1200 +8.6263000e+09 5.10681700e-03 7.81665300e-03            nan
       50 -1    0    0    0    0 +2.5617264306e-02 -8.0299516797e-03 +7.5903913672e+00 7.5904404857e+00 4.9935713700e-03 0.0000e+00 0.0000e+00
       11 -1    0    0    0    0 -8.8989692778e-19 +2.7894584076e-19 -2.6367631912e-16 5.1100000000e-04 5.1099893000e-04 0.0000e+00 1.0000e+00
       50  1    1    2    0    0 +2.4984113873e-02 -8.8934732961e-03 +7.5892731386e+00 7.5893211164e+00 4.9935713700e-03 0.0000e+00 0.0000e+00
       11  1    1    2    0    0 +6.3315043362e-04 +8.6352161640e-04 +1.1182286187e-03 1.6303693458e-03 5.1099893000e-04 0.0000e+00 1.0000e+00
<vert_displacement>
175.18838546637838
</vert_displacement>
</event>
<event>
 4   1200 +8.6263000e+09 1.93281000e-02 7.81665300e-03            nan
       50 -1    0    0    0    0 +2.2242105428e-02 -1.3166160322e-02 +8.2182817987e+00 8.2183239604e+00 4.9935713700e-03 0.0000e+00 0.0000e+00
       11 -1    0    0    0    0 +3.5305373860e-18 -2.0898930362e-18 +1.3045056023e-15 5.1100000000e-04 5.1099893000e-04 0.0000e+00 1.0000e+00
       50  1    1    2    0    0 +2.8217796494e-03 -1.5432101766e-02 +7.8616471679e+00 7.8616644065e+00 4.9935713700e-03 0.0000e+00 0.0000e+00
       11  1    1    2    0    0 +1.9420325779e-02 +2.2659414442e-03 +3.5663463077e-01 3.5717055384e-01 5.1099893000e-04 0.0000e+00 1.0000e+00
<vert_displacement>
480.57939859386494
</vert_displacement>
</event>
<event>
 4   1200 +8.6263000e+09 9.14324000e-03 7.81665300e-03            nan
       50 -1    0    0    0    0 -8.9740951254e-03 -1.0996786277e-02 +7.1368244920e+00 7.1368403533e+00 4.9935713700e-03 0.0000e+00 0.0000e+00
       11 -1    0    0    0    0 +6.1948870010e-19 +7.5911662857e-19 -4.9266049285e-16 5.1100000000e-04 5.1099893000e-04 0.0000e+00 1.0000e+00
       50  1    1    2    0    0 -4.2813418544e-03 -1.7016526601e-02 +7.0789456751e+00 7.0789691834e+00 4.9935713700e-03 0.0000e+00 0.0000e+00
       11  1    1    2    0    0 -4.6927532711e-03 +6.0197403236e-03 +5.7878816826e-02 5.8382169915e-02 5.1099893000e-04 0.0000e+00 1.0000e+00
<vert_displacement>
434.00328756543496
</vert_displacement>
</event>
<event>
 4   1200 +8.6263000e+09 5.58640900e-03 7.81665300e-03            nan
       50 -1    0    0    0    0 -1.6872778024e-03 +6.2402843525e-02 +2.6494700085e+01 2.6494774098e+01 4.9935713700e-03 0.0000e+00 0.0000e+00
       11 -1    0    0    0    0 -2.6513549778e-21 +9.8058594488e-20 +4.1633247861e-17 5.1100000000e-04 5.1099893000e-04 0.0000e+00 1.0000e+00
       50  1    1    2    0    0 -1.6985071194e-03 +6.4892789632e-02 +2.6488555468e+01 2.6488635481e+01 4.9935713700e-03 0.0000e+00 0.0000e+00
       11  1    1    2    0    0 +1.1229317053e-05 -2.4899461066e-03 +6.1446173037e-03 6.6496164872e-03 5.1099893000e-04 0.0000e+00 1.0000e+00
<vert_displacement>
395.49487339088677
</vert_displacement>
</event>
<event>
 4   1200 +8.6263000e+09 1.42157600e-02 7.81665300e-03            nan
       50 -1    0    0    0    0 -2.0273425301e-02 +1.9933474683e-02 +1.0892068101e+01 1.0892106353e+01 4.9935713700e-03 0.0000e+00 0.0000e+00
       11 -1    0    0    0    0 +3.3579861359e-19 -3.3016784600e-19 -1.8041062687e-16 5.1100000000e-04 5.1099893000e-04 0.0000e+00 1.0000e+00
       50  1    1    2    0    0 -3.2135108372e-02 +2.4955479920e-02 +1.0715832733e+01 1.0715911139e+01 4.9935713700e-03 0.0000e+00 0.0000e+00
       11  1    1    2    0    0 +1.1861683071e-02 -5.0220052368e-03 +1.7623536744e-01 1.7670621358e-01 5.1099893000e-04 0.0000e+00 1.0000e+00
<vert_displacement>
464.84512502788567
</vert_displacement>
</event>
<event>
 4   1200 +8.6263000e+09 1.99939800e-02 7.81665300e-03            nan
       50 -1    0    0    0    0 -1.6434688676e-02 -2.1692403127e-02 +1.3434069327e+01 1.3434097822e+01 4.9935713700e-03 0.0000e+00 0.0000e+00
       11 -1    0    0    0    0 +8.4887404022e-21 +1.1204421482e-20 -6.9388796655e-18 5.1100000000e-04 5.1099893000e-04 0.0000e+00 1.0000e+00
       50  1    1    2    0    0 -2.1276152060e-02 -2.4631562826e-03 +1.3056704360e+01 1.3056722882e+01 4.9935713700e-03 0.0000e+00 0.0000e+00
       11  1    1    2    0    0 +4.8414633842e-03 -1.9229246845e-02 +3.7736496711e-01 3.7788593943e-01 5.1099893000e-04 0.0000e+00 1.0000e+00
<vert_displacement>
41.103197785381788
</vert_displacement>
</event>
<event>
 4   1200 +8.6263000e+09 2.98924400e-02 7.81665300e-03            nan
       50 -1    0    0    0    0 +5.9435642810e-02 -3.3330813423e-02 +1.8837484313e+01 1.8837608227e+01 4.9935713700e-03 0.0000e+00 0.0000e+00
       11 -1    0    0    0    0 -4.3786623979e-19 +2.4555026669e-19 -1.3877697007e-16 5.1100000000e-04 5.1099893000e-04 0.0000e+00 1.0000e+00
       50  1    1    2    0    0 +7.8504747532e-02 -1.2011326800e-02 +1.7945191887e+01 1.7945368318e+01 4.9935713700e-03 0.0000e+00 0.0000e+00
       11  1    1    2    0    0 -1.9069104722e-02 -2.1319486623e-02 +8.9229242578e-01 8.9275090898e-01 5.1099893000e-04 0.0000e+00 1.0000e+00
<vert_displacement>
38.441086246309496
</vert_displacement>
</event>
<event>
 4   1200 +8.6263000e+09 9.20716500e-03 7.81665300e-03            nan
       50 -1    0    0    0    0 -1.0738591777e-02 +5.9251538684e-03 +8.2393387893e+00 8.2393494309e+00 4.9935713700e-03 0.0000e+00 0.0000e+00
       11 -1    0    0    0    0 +2.8035379045e-19 -1.5468875067e-19 -2.1510547270e-16 5.1100000000e-04 5.1099893000e-04 0.0000e+00 1.0000e+00
       50  1    1    2    0    0 -1.7951299647e-02 +8.4708198440e-03 +8.1803524166e+00 8.1803780230e+00 4.9935713700e-03 0.0000e+00 0.0000e+00
       11  1    1    2    0    0 +7.2127078696e-03 -2.5456659756e-03 +5.8986372699e-02 5.9482407938e-02 5.1099893000e-04 0.0000e+00 1.0000e+00
<vert_displacement>
60.796082321094659
</vert_displacement>
</event>
<event>
 4   1200 +8.6263000e+09 2.22340400e-02 7.81665300e-03            nan
       50 -1    0    0    0    0 +8.0507215096e-03 -8.4163526167e-03 +6.9829453950e+00 6.9829568934e+00 4.9935713700e-03 0.0000e+00 0.0000e+00
       11 -1    0    0    0    0 +7.0399321429e-19 -7.3596572980e-19 +6.1062181420e-16 5.1100000000e-04 5.1099893000e-04 0.0000e+00 1.0000e+00
       50  1    1    2    0    0 -1.1686910426e-02 -1.7920970899e-02 +6.4884736116e+00 6.4885108068e+00 4.9935713700e-03 0.0000e+00 0.0000e+00
       11  1    1    2    0    0 +1.9737631936e-02 +9.5046182818e-03 +4.9447178338e-01 4.9495708659e-01 5.1099893000e-04 0.0000e+00 1.0000e+00
<vert_displacement>
231.73742937161967
</vert_displacement>
</event>
<event>
 4   1200 +8.6263000e+09 4.55824500e-02 7.81665300e-03            nan
       50 -1    0    0    0    0 -1.0567615201e-01 -9.2145563226e-04 +3.3645104720e+01 3.3645271062e+01 4.9935713700e-03 0.0000e+00 0.0000e+00
       11 -1    0    0    0    0 +1.9048230771e-17 +1.6609328779e-19 -6.0645633555e-15 5.1100000000e-04 5.1099893000e-04 0.0000e+00 1.0000e+00
       50  1    1    2    0    0 -1.4404748441e-01 +3.3629796413e-03 +3.1499384742e+01 3.1499714682e+01 4.9935713700e-03 0.0000e+00 0.0000e+00
       11  1    1    2    0    0 +3.8371332405e-02 -4.2844352736e-03 +2.1457199778e+00 2.1460673801e+00 5.1099893000e-04 0.0000e+00 1.0000e+00
<vert_displacement>
404.40955577266709
</vert_displacement>
</event>
<event>
 4   1200 +8.6263000e+09 1.66080700e-02 7.81665300e-03            nan
       50 -1    0    0    0    0 -2.3498707169e-02 +1.4350099812e-02 +1.3412408125e+01 1.3412437316e+01 4.9935713700e-03 0.0000e+00 0.0000e+00
       11 -1    0    0    0    0 -7.2942020925e-19 +4.4543951853e-19 +4.1633275697e-16 5.1100000000e-04 5.1099893000e-04 0.0000e+00 1.0000e+00
       50  1    1    2    0    0 -1.4394255631e-02 +8.2387960014e-04 +1.3162262507e+01 1.3162271350e+01 4.9935713700e-03 0.0000e+00 0.0000e+00
       11  1    1    2    0    0 -9.1044515381e-03 +1.3526220212e-02 +2.5014561809e-01 2.5067696552e-01 5.1099893000e-04 0.0000e+00 1.0000e+00
<vert_displacement>
376.60797320120355
</vert_displacement>
</event>
<event>
 4   1200 +8.6263000e+09 2.13663700e-02 7.81665300e-03            nan
       50 -1    0    0    0    0 -3.0738788799e-02 -3.3801121628e-03 +9.7546420562e+00 9.7546923518e+00 4.9935713700e-03 0.0000e+00 0.0000e+00
       11 -1    0    0    0    0 +1.9460477160e-18 +2.1399215166e-19 -6.1755845419e-16 5.1100000000e-04 5.1099893000e-04 0.0000e+00 1.0000e+00
       50  1    1    2    0    0 -3.3413651328e-02 -2.3599051479e-02 +9.3121898896e+00 9.3122810774e+00 4.9935713700e-03 0.0000e+00 0.0000e+00
       11  1    1    2    0    0 +2.6748625294e-03 +2.0218939316e-02 +4.4245216656e-01 4.4292227446e-01 5.1099893000e-04 0.0000e+00 1.0000e+00
<vert_displacement>
455.30115869746948
</vert_displacement>
</event>
<event>
 4   1200 +8.6263000e+09 1.50136900e-02 7.81665300e-03            nan
       50 -1    0    0    0    0 -7.6030703250e-03 +4.4093174876e-03 +2.5550172333e+00 2.5550372301e+00 4.9935713700e-03 0.0000e+00 0.0000e+00
       11 -1    0    0    0    0 -5.0588166091e-19 +2.9338053691e-19 +1.7000189481e-16 5.1100000000e-04 5.1099893000e-04 0.0000e+00 1.0000e+00
       50  1    1    2    0    0 +5.3430433041e-03 -2.9591380708e-03 +2.3407151279e+00 2.3407284230e+00 4.9935713700e-03 0.0000e+00 0.0000e+00
       11  1    1    2    0    0 -1.2946113629e-02 +7.3684555584e-03 +2.1430210547e-01 2.1481980710e-01 5.1099893000e-04 0.0000e+00 1.0000e+00
<vert_displacement>
12.272558143313720
</vert_displacement>
</event>
<event>
 4   1200 +8.6263000e+09 7.64565100e-03 7.81665300e-03            nan
       50 -1    0    0    0    0 +2.8866009202e-03 +1.6512233942e-02 +6.5784950249e+00 6.5785182766e+00 4.9935713700e-03 0.0000e+00 0.0000e+00
       11 -1    0    0    0    0 -3.3492048972e-20 -1.9158469186e-19 -7.6327585153e-17 5.1100000000e-04 5.1099893000e-04 0.0000e+00 1.0000e+00
       50  1    1    2    0    0 +1.5029815408e-03 +2.2054916297e-02 +6.5455145809e+00 6.5455538148e+00 4.9935713700e-03 0.0000e+00 0.0000e+00
       11  1    1    2    0    0 +1.3836193794e-03 -5.5426823555e-03 +3.2980444067e-02 3.3475461775e-02 5.1099893000e-04 0.0000e+00 1.0000e+00
<vert_displacement>
136.84415538654858
</vert_displacement>
</event>
<event>
 4   1200 +8.6263000e+09 8.08839800e-03 7.81665300e-03            nan
       50 -1    0    0    0    0 +5.9759444721e-03 -5.4817551860e-03 +3.1258609065e+00 3.1258754141e+00 4.9935713700e-03 0.0000e+00 0.0000e+00
       11 -1    0    0    0    0 -2.3878013598e-19 +2.1903387068e-19 -1.2489966997e-16 5.1100000000e-04 5.1099893000e-04 0.0000e+00 1.0000e+00
       50  1    1    2    0    0 +4.0931515567e-03 +6.8981850133e-04 +3.0857343251e+00 3.0857411574e+00 4.9935713700e-03 0.0000e+00 0.0000e+00
       11  1    1    2    0    0 +1.8827929154e-03 -6.1715736873e-03 +4.0126581472e-02 4.0645256691e-02 5.1099893000e-04 0.0000e+00 1.0000e+00
<vert_displacement>
253.16690165588875
</vert_displacement>
</event>
<event>
 4   1200 +8.6263000e+09 1.89344200e-02 7.81665300e-03            nan
       50 -1    0    0    0    0 +9.3009474531e-02 -8.8417745067e-02 +4.2104248165e+01 4.2104444029e+01 4.9935713700e-03 0.0000e+00 0.0000e+00
       11 -1    0    0    0    0 -2.1459398250e-19 +2.0399981973e-19 -9.7144063437e-17 5.1100000000e-04 5.1099893000e-04 0.0000e+00 1.0000e+00
       50  1    1    2    0    0 +7.5307144962e-02 -8.0988833641e-02 +4.1775329967e+01 4.1775476647e+01 4.9935713700e-03 0.0000e+00 0.0000e+00
       11  1    1    2    0    0 +1.7702329569e-02 -7.4289114259e-03 +3.2891819852e-01 3.2947838114e-01 5.1099893000e-04 0.0000e+00 1.0000e+00
<vert_displacement>
304.73946019625026
</vert_displacement>
</event>
<event>
 4   1200 +8.6263000e+09 7.82152900e-03 7.81665300e-03            nan
       50 -1    0    0    0    0 +1.5937890786e-02 +1.5465129699e-02 +6.0991981895e+00 6.0992406639e+00 4.9935713700e-03 0.0000e+00 0.0000e+00
       11 -1    0    0    0    0 +7.4341158703e-19 +7.2135998215e-19 +2.8449276422e-16 5.1100000000e-04 5.1099893000e-04 0.0000e+00 1.0000e+00
       50  1    1    2    0    0 +2.1502108898e-02 +1.7432249435e-02 +6.0635055379e+00 6.0635707770e+00 4.9935713700e-03 0.0000e+00 0.0000e+00
       11  1    1    2    0    0 -5.5642181120e-03 -1.9671197355e-03 +3.5692651596e-02 3.6180886958e-02 5.1099893000e-04 0.0000e+00 1.0000e+00
<vert_displacement>
111.69425676663569
</vert_displacement>
</event>
<event>
 4   1200 +8.6263000e+09 9.81637200e-03 7.81665300e-03            nan
       50 -1    0    0    0    0 -8.8234462221e-03 +2.3093207226e-02 +1.5327756341e+01 1.5327777090e+01 4.9935713700e-03 0.0000e+00 0.0000e+00
       11 -1    0    0    0    0 -3.4351664745e-19 +8.9907060411e-19 +5.9674409958e-16 5.1100000000e-04 5.1099893000e-04 0.0000e+00 1.0000e+00
       50  1    1    2    0    0 -1.7219917193e-02 +2.2493159707e-02 +1.5257539985e+01 1.5257567100e+01 4.9935713700e-03 0.0000e+00 0.0000e+00
       11  1    1    2    0    0 +8.3964709709e-03 +6.0004751944e-04 +7.0216355681e-02 7.0720990568e-02 5.1099893000e-04 0.0000e+00 1.0000e+00
<vert_displacement>
288.62320173466719
</vert_displacement>
</event>
<event>
 4   1200 +8.6263000e+09 8.81292300e-03 7.81665300e-03            nan
       50 -1    0    0    0    0 -5.4728668226e-02 +1.2313756255e-02 +1.6858291161e+01 1.6858385233e+01 4.9935713700e-03 0.0000e+00 0.0000e+00
       11 -1    0    0    0    0 +4.9557781140e-19 -1.1150324999e-19 -1.5265482075e-16 5.1100000000e-04 5.1099893000e-04 0.0000e+00 1.0000e+00
       50  1    1    2    0    0 -4.7461157730e-02 +1.0749987020e-02 +1.6806558185e+01 1.6806629379e+01 4.9935713700e-03 0.0000e+00 0.0000e+00
       11  1    1    2    0    0 -7.2675104967e-03 +1.5637692349e-03 +5.1732976021e-02 5.2266853846e-02 5.1099893000e-04 0.0000e+00 1.0000e+00
<vert_displacement>
462.08527206454266
</vert_displacement>
</event>
<event>
 4   1200 +8.6263000e+09 1.58559100e-02 7.81665300e-03            nan
       50 -1    0    0    0    0 -8.6620727513e-03 +7.0539118120e-03 +3.8917746004e+00 3.8917938365e+00 4.9935713700e-03 0.0000e+00 0.0000e+00
       11 -1    0    0    0    0 +1.8532920030e-19 -1.5092182583e-19 -8.3266383826e-17 5.1100000000e-04 5.1099893000e-04 0.0000e+00 1.0000e+00
       50  1    1    2    0    0 -2.0646504066e-02 -1.7392649163e-03 +3.6557310029e+00 3.6557931294e+00 4.9935713700e-03 0.0000e+00 0.0000e+00
       11  1    1    2    0    0 +1.1984431315e-02 +8.7931767283e-03 +2.3604359750e-01 2.3651170709e-01 5.1099893000e-04 0.0000e+00 1.0000e+00
<vert_displacement>
177.51905436095763
</vert_displacement>
</event>
<event>
 4   1200 +8.6263000e+09 3.37733100e-02 7.81665300e-03            nan
       50 -1    0    0    0    0 +3.8783833632e-02 -4.4675959682e-02 +2.2489774321e+01 2.2489852691e+01 4.9935713700e-03 0.0000e+00 0.0000e+00
       11 -1    0    0    0    0 -4.7864593351e-19 +5.5136288563e-19 -2.7755479580e-16 5.1100000000e-04 5.1099893000e-04 0.0000e+00 1.0000e+00
       50  1    1    2    0    0 +5.0175948859e-02 -7.2996839814e-02 +2.1339053069e+01 2.1339237497e+01 4.9935713700e-03 0.0000e+00 0.0000e+00
       11  1    1    2    0    0 -1.1392115227e-02 +2.8320880132e-02 +1.1507212521e+00 1.1511261937e+00 5.1099893000e-04 0.0000e+00 1.0000e+00
<vert_displacement>
155.23167021147322
</vert_displacement>
</event>
<event>
 4   1200 +8.6263000e+09 1.14499200e-02 7.81665300e-03            nan
       50 -1    0    0    0    0 -4.7619876528e-02 -2.5862772354e-02 +1.7347573864e+01 1.7347659220e+01 4.9935713700e-03 0.0000e+00 0.0000e+00
       11 -1    0    0    0    0 -4.3809216276e-18 -2.3793169369e-18 +1.5959378114e-15 5.1100000000e-04 5.1099893000e-04 0.0000e+00 1.0000e+00
       50  1    1    2    0    0 -5.6864715122e-02 -2.1794072530e-02 +1.7243040818e+01 1.7243149080e+01 4.9935713700e-03 0.0000e+00 0.0000e+00
       11  1    1    2    0    0 +9.2448385943e-03 -4.0686998244e-03 +1.0453304506e-01 1.0502114068e-01 5.1099893000e-04 0.0000e+00 1.0000e+00
<vert_displacement>
105.42232569041465
</vert_displacement>
</event>
<event>
 4   1200 +8.6263000e+09 4.03782600e-02 7.81665300e-03            nan
       50 -1    0    0    0    0 +2.8924567050e-02 +9.9527895445e-03 +1.0349782845e+01 1.0349829252e+01 4.9935713700e-03 0.0000e+00 0.0000e+00
       11 -1    0    0    0    0 +4.4601741442e-19 +1.5347221796e-19 +1.5959386276e-16 5.1100000000e-04 5.1099893000e-04 0.0000e+00 1.0000e+00
       50  1    1    2    0    0 +5.0560795972e-02 -2.1476571476e-02 +8.4169886314e+00 8.4171693694e+00 4.9935713700e-03 0.0000e+00 0.0000e+00
       11  1    1    2    0    0 -2.1636228922e-02 +3.1429361020e-02 +1.9327942131e+00 1.9331708829e+00 5.1099893000e-04 0.0000e+00 1.0000e+00
<vert_displacement>
296.42699484184766
</vert_displacement>
</event>
<event>
 4   1200 +8.6263000e+09 7.25825700e-03 7.81665300e-03            nan
       50 -1    0    0    0    0 +5.5813617346e-02 +9.5618315370e-03 +1.7295472179e+01 1.7295565600e+01 4.9935713700e-03 0.0000e+00 0.0000e+00
       11 -1    0    0    0    0 +4.4784286824e-20 +7.6723177332e-21 +1.3877713426e-17 5.1100000000e-04 5.1099893000e-04 0.0000e+00 1.0000e+00
       50  1    1    2    0    0 +5.5499596973e-02 +4.2841625642e-03 +1.7268283090e+01 1.7268373530e+01 4.9935713700e-03 0.0000e+00 0.0000e+00
       11  1    1    2    0    0 +3.1402037268e-04 +5.2776689728e-03 +2.7189088612e-02 2.7703069469e-02 5.1099893000e-04 0.0000e+00 1.0000e+00
<vert_displacement>
334.28579923910365
</vert_displacement>
</event>
<event>
 4   1200 +8.6263000e+09 1.04332300e-02 7.81665300e-03            nan
       50 -1    0    0    0    0 -1.0319134238e-02 -5.0476631723e-02 +2.5346840467e+01 2.5346893320e+01 4.9935713700e-03 0.0000e+00 0.0000e+00
       11 -1    0    0    0    0 +1.9774559627e-19 +9.6728382516e-19 -4.8572156988e-16 5.1100000000e-04 5.1099893000e-04 0.0000e+00 1.0000e+00
       50  1    1    2    0    0 -1.6949076984e-02 -5.6598613037e-02 +2.5264445730e+01 2.5264515306e+01 4.9935713700e-03 0.0000e+00 0.0000e+00
       11  1    1    2    0    0 +6.6299427467e-03 +6.1219813148e-03 +8.2394736471e-02 8.2889013229e-02 5.1099893000e-04 0.0000e+00 1.0000e+00
<vert_displacement>
308.17476992086472
</vert_displacement>
</event>
<event>
 4   1200 +8.6263000e+09 1.88827000e-02 7.81665300e-03            nan
       50 -1    0    0    0    0 -4.9346875501e-02 -3.4940772713e-02 +4.5023466903e+01 4.5023507781e+01 4.9935713700e-03 0.0000e+00 0.0000e+00
       11 -1    0    0    0    0 -5.6278472493e-19 -3.9848790750e-19 +5.1347768585e-16 5.1100000000e-04 5.1099893000e-04 0.0000e+00 1.0000e+00
       50  1    1    2    0    0 -4.6597798128e-02 -5.2739931171e-02 +4.4696596017e+01 4.4696651702e+01 4.9935713700e-03 0.0000e+00 0.0000e+00
       11  1    1    2    0    0 -2.7490773733e-03 +1.7799158458e-02 +3.2687088555e-01 3.2736707900e-01 5.1099893000e-04 0.0000e+00 1.0000e+00
<vert_displacement>
188.99076338219203
</vert_displacement>
</event>
<event>
 4   1200 +8.6263000e+09 3.54420500e-02 7.81665300e-03            nan
       50 -1    0    0    0    0 +2.6873398010e-02 +9.7037674957e-03 +8.4791872142e+00 8.4792368225e+00 4.9935713700e-03 0.0000e+00 0.0000e+00
       11 -1    0    0    0    0 +8.3567948002e-19 +3.0175712695e-19 +2.6367647141e-16 5.1100000000e-04 5.1099893000e-04 0.0000e+00 1.0000e+00
       50  1    1    2    0    0 -1.1334594011e-02 -2.0861393067e-03 +7.0240770779e+00 7.0240883079e+00 4.9935713700e-03 0.0000e+00 0.0000e+00
       11  1    1    2    0    0 +3.8207992021e-02 +1.1789906802e-02 +1.4551101363e+00 1.4556595146e+00 5.1099893000e-04 0.0000e+00 1.0000e+00
<vert_displacement>
82.958707305691448
</vert_displacement>
</event>
<event>
 4   1200 +8.6263000e+09 4.05065000e-02 7.81665300e-03            nan
       50 -1    0    0    0    0 -1.7922202788e-02 +8.0707414912e-03 +2.2481083839e+01 2.2481092986e+01 4.9935713700e-03 0.0000e+00 0.0000e+00
       11 -1    0    0    0    0 +2.9871565443e-19 -1.3451788571e-19 -3.7470012760e-16 5.1100000000e-04 5.1099893000e-04 0.0000e+00 1.0000e+00
       50  1    1    2    0    0 -4.1291867341e-02 +3.9143250495e-02 +2.0769516825e+01 2.0769595357e+01 4.9935713700e-03 0.0000e+00 0.0000e+00
       11  1    1    2    0    0 +2.3369664553e-02 -3.1072509003e-02 +1.7115670140e+00 1.7120086292e+00 5.1099893000e-04 0.0000e+00 1.0000e+00
<vert_displacement>
146.43078678770794
</vert_displacement>
</event>
<event>
 4   1200 +8.6263000e+09 2.20067600e-02 7.81665300e-03            nan
       50 -1    0    0    0    0 -1.5832232662e-01 +9.6136565496e-02 +4.7140780675e+01 4.7141144829e+01 4.9935713700e-03 0.0000e+00 0.0000e+00
       11 -1    0    0    0    0 +2.0041523810e-18 -1.2169624510e-18 -5.9674026937e-16 5.1100000000e-04 5.1099893000e-04 0.0000e+00 1.0000e+00
       50  1    1    2    0    0 -1.4596694794e-01 +1.1370556314e-01 +4.6686932860e+01 4.6687299773e+01 4.9935713700e-03 0.0000e+00 0.0000e+00
       11  1    1    2    0    0 -1.2355378681e-02 -1.7568997646e-02 +4.5384781538e-01 4.5435605609e-01 5.1099893000e-04 0.0000e+00 1.0000e+00
<vert_displacement>
304.98257261599457
</vert_displacement>
</event>
<event>
 4   1200 +8.6263000e+09 8.38707000e-03 7.81665300e-03            nan
       50 -1    0    0    0    0 -1.3275301485e-02 -1.0203983277e-02 +3.9952953439e+00 3.9953335500e+00 4.9935713700e-03 0.0000e+00 0.0000e+00
       11 -1    0    0    0    0 +1.2219622981e-18 +9.3925421343e-19 -3.6775814737e-16 5.1100000000e-04 5.1099893000e-04 0.0000e+00 1.0000e+00
       50  1    1    2    0    0 -6.6934497777e-03 -1.2096599279e-02 +3.9503678984e+00 3.9503952459e+00 4.9935713700e-03 0.0000e+00 0.0000e+00
       11  1    1    2    0    0 -6.5818517073e-03 +1.8926160026e-03 +4.4927445457e-02 4.5449304092e-02 5.1099893000e-04 0.0000e+00 1.0000e+00
<vert_displacement>
86.307814170654510
</vert_displacement>
</event>
<event>
 4   1200 +8.6263000e+09 1.39771700e-02 7.81665300e-03            nan
       50 -1    0    0    0    0 -1.3380242469e-02 -6.3695828397e-03 +6.6897069260e+00 6.6897252032e+00 4.9935713700e-03 0.0000e+00 0.0000e+00
       11 -1    0    0    0    0 -3.0532949126e-19 -1.4535024253e-19 +1.5265529134e-16 5.1100000000e-04 5.1099893000e-04 0.0000e+00 1.0000e+00
       50  1    1    2    0    0 -1.1454973325e-02 +6.7517753611e-03 +6.5185578445e+00 6.5185733187e+00 4.9935713700e-03 0.0000e+00 0.0000e+00
       11  1    1    2    0    0 -1.9252691447e-03 -1.3121358201e-02 +1.7114908146e-01 1.7166288448e-01 5.1099893000e-04 0.0000e+00 1.0000e+00
<vert_displacement>
180.11177563756118
</vert_displacement>
</event>
<event>
 4   1200 +8.6263000e+09 5.06404700e-03 7.81665300e-03            nan
       50 -1    0    0    0    0 +4.0207897430e-04 -9.4540451791e-03 +9.6782015319e+00 9.6782074461e+00 4.9935713700e-03 0.0000e+00 0.0000e+00
       11 -1    0    0    0    0 +2.8250934442e-20 -6.6426156958e-19 +6.8001127756e-16 5.1100000000e-04 5.1099893000e-04 0.0000e+00 1.0000e+00
       50  1    1    2    0    0 +1.0413382983e-04 -1.0240810655e-02 +9.6775071271e+00 9.6775138344e+00 4.9935713700e-03 0.0000e+00 0.0000e+00
       11  1    1    2    0    0 +2.9794514448e-04 +7.8676547614e-04 +6.9440487471e-04 1.2046116636e-03 5.1099893000e-04 0.0000e+00 1.0000e+00
<vert_displacement>
465.22275988002656
</vert_displacement>
</event>
<event>
 4   1200 +8.6263000e+09 5.88242900e-03 7.81665300e-03            nan
       50 -1    0    0    0    0 +8.1028501047e-02 -3.5599675666e-02 +2.5317000390e+01 2.5317155580e+01 4.9935713700e-03 0.0000e+00 0.0000e+00
       11 -1    0    0    0    0 -3.9530576901e-18 +1.7367663210e-18 -1.2351155678e-15 5.1100000000e-04 5.1099893000e-04 0.0000e+00 1.0000e+00
       50  1    1    2    0    0 +8.3564509776e-02 -3.3831002050e-02 +2.5307531855e+01 2.5307692923e+01 4.9935713700e-03 0.0000e+00 0.0000e+00
       11  1    1    2    0    0 -2.5360087290e-03 -1.7686736164e-03 +9.4685347493e-03 9.9736561420e-03 5.1099893000e-04 0.0000e+00 1.0000e+00
<vert_displacement>
15.655056305333323
</vert_displacement>
</event>
<event>
 4   1200 +8.6263000e+09 6.87669600e-03 7.81665300e-03            nan
       50 -1    0    0    0    0 +1.3526935192e-02 -3.3591138295e-04 +5.9777660006e+00 5.9777834006e+00 4.9935713700e-03 0.0000e+00 0.0000e+00
       11 -1    0    0    0    0 -2.1982529717e-19 +5.4588728736e-21 -9.7144265783e-17 5.1100000000e-04 5.1099893000e-04 0.0000e+00 1.0000e+00
       50  1    1    2    0    0 +9.1748950364e-03 +1.6256289004e-03 +5.9558210569e+00 5.9558304391e+00 4.9935713700e-03 0.0000e+00 0.0000e+00
       11  1    1    2    0    0 +4.3520401553e-03 -1.9615402834e-03 +2.1944943689e-02 2.2463961521e-02 5.1099893000e-04 0.0000e+00 1.0000e+00
<vert_displacement>
311.67965509396799
</vert_displacement>
</event>
<event>
 4   1200 +8.6263000e+09 1.51320200e-02 7.81665300e-03            nan
       50 -1    0    0    0    0 -6.7333506183e-02 +3.2116811146e-04 +2.6314968176e+01 2.6315054797e+01 4.9935713700e-03 0.0000e+00 0.0000e+00
       11 -1    0    0    0    0 -1.1505148053e-17 +5.4877383963e-20 +4.4963885300e-15 5.1100000000e-04 5.1099893000e-04 0.0000e+00 1.0000e+00
       50  1    1    2    0    0 -6.3373994603e-02 +1.4181473915e-02 +2.6113784005e+01 2.6113865233e+01 4.9935713700e-03 0.0000e+00 0.0000e+00
       11  1    1    2    0    0 -3.9595115803e-03 -1.3860305804e-02 +2.0118417122e-01 2.0170056440e-01 5.1099893000e-04 0.0000e+00 1.0000e+00
<vert_displacement>
257.13438526373960
</vert_displacement>
</event>
<event>
 4   1200 +8.6263000e+09 6.58468600e-03 7.81665300e-03            nan
       50 -1    0    0    0    0 -1.5938954592e-02 +2.0483232410e-03 +4.9391098250e+00 4.9391384922e+00 4.9935713700e-03 0.0000e+00 0.0000e+00
       11 -1    0    0    0    0 +1.7242086670e-18 -2.2157894137e-19 -5.3429200257e-16 5.1100000000e-04 5.1099893000e-04 0.0000e+00 1.0000e+00
       50  1    1    2    0    0 -1.5494817431e-02 +6.3155754348e-03 +4.9210151356e+00 4.9210461160e+00 4.9935713700e-03 0.0000e+00 0.0000e+00
       11  1    1    2    0    0 -4.4413716036e-04 -4.2672521939e-03 +1.8094689440e-02 1.8603376170e-02 5.1099893000e-04 0.0000e+00 1.0000e+00
<vert_displacement>
11.368019141394896
</vert_displacement>
</event>
<event>
 4   1200 +8.6263000e+09 5.74319700e-02 7.81665300e-03            nan
       50 -1    0    0    0    0 +4.2301188285e-02 +4.7902103901e-02 +1.9418317451e+01 1.9418423252e+01 4.9935713700e-03 0.0000e+00 0.0000e+00
       11 -1    0    0    0    0 +3.7486987964e-18 +4.2450476339e-18 +1.7208363691e-15 5.1100000000e-04 5.1099893000e-04 0.0000e+00 1.0000e+00
       50  1    1    2    0    0 -2.1287444517e-02 +2.1373162307e-02 +1.5370471762e+01 1.5370502174e+01 4.9935713700e-03 0.0000e+00 0.0000e+00
       11  1    1    2    0    0 +6.3588632801e-02 +2.6528941595e-02 +4.0478456894e+00 4.0484320774e+00 5.1099893000e-04 0.0000e+00 1.0000e+00
<vert_displacement>
395.88138269353072
</vert_displacement>
</event>
<event>
 4   1200 +8.6263000e+09 6.10975200e-02 7.81665300e-03            nan
       50 -1    0    0    0    0 -4.0344130711e-03 +5.8460578526e-02 +2.7951654413e+01 2.7951716285e+01 4.9935713700e-03 0.0000e+00 0.0000e+00
       11 -1    0    0    0    0 -6.3496735034e-19 +9.2009811570e-18 +4.3992490674e-15 5.1100000000e-04 5.1099893000e-04 0.0000e+00 1.0000e+00
       50  1    1    2    0    0 -4.2712400197e-02 +9.6012514939e-02 +2.3665585631e+01 2.3665819465e+01 4.9935713700e-03 0.0000e+00 0.0000e+00
       11  1    1    2    0    0 +3.8677987126e-02 -3.7551936413e-02 +4.2860687815e+00 4.2864078196e+00 5.1099893000e-04 0.0000e+00 1.0000e+00
<vert_displacement>
416.89204397518569
</vert_displacement>
</event>
<event>
 4   1200 +8.6263000e+09 7.28500400e-03 7.81665300e-03            nan
       50 -1    0    0    0    0 +3.4497393025e-02 +6.0637835657e-03 +1.8965507770e+01 1.8965540771e+01 4.9935713700e-03 0.0000e+00 0.0000e+00
       11 -1    0    0    0    0 -2.0446845855e-18 -3.5940468828e-19 -1.1240988954e-15 5.1100000000e-04 5.1099893000e-04 0.0000e+00 1.0000e+00
       50  1    1    2    0    0 +2.9535375770e-02 +4.0527206641e-03 +1.8937946646e+01 1.8937970770e+01 4.9935713700e-03 0.0000e+00 0.0000e+00
       11  1    1    2    0    0 +4.9620172551e-03 +2.0110629016e-03 +2.7561123634e-02 2.8081001497e-02 5.1099893000e-04 0.0000e+00 1.0000e+00
<vert_displacement>
494.29828779955704
</vert_displacement>
</event>
<event>
 4   1200 +8.6263000e+09 9.77672700e-03 7.81665300e-03            nan
       50 -1    0    0    0    0 -1.1702841860e-02 +3.5468196241e-03 +5.9649032990e+00 5.9649179238e+00 4.9935713700e-03 0.0000e+00 0.0000e+00
       11 -1    0    0    0    0 +1.2116223342e-18 -3.6721045395e-19 -6.1756025970e-16 5.1100000000e-04 5.1099893000e-04 0.0000e+00 1.0000e+00
       50  1    1    2    0    0 -4.7431284941e-03 -1.4041974933e-03 +5.8949621914e+00 5.8949663819e+00 4.9935713700e-03 0.0000e+00 0.0000e+00
       11  1    1    2    0    0 -6.9597133661e-03 +4.9510171174e-03 +6.9941107531e-02 7.0462541987e-02 5.1099893000e-04 0.0000e+00 1.0000e+00
<vert_displacement>
297.69283505409123
</vert_displacement>
</event>
<event>
 4   1200 +8.6263000e+09 6.23217800e-03 7.81665300e-03            nan
       50 -1    0    0    0    0 +1.9106841785e-02 +1.1056525972e-02 +1.0940902250e+01 1.0940925660e+01 4.9935713700e-03 0.0000e+00 0.0000e+00
       11 -1    0    0    0    0 +1.2844907996e-18 +7.4329426322e-19 +7.3552125664e-16 5.1100000000e-04 5.1099893000e-04 0.0000e+00 1.0000e+00
       50  1    1    2    0    0 +1.5631370842e-02 +9.6320410146e-03 +1.0927287123e+01 1.0927303690e+01 4.9935713700e-03 0.0000e+00 0.0000e+00
       11  1    1    2    0    0 +3.4754709427e-03 +1.4244849575e-03 +1.3615127164e-02 1.4132970787e-02 5.1099893000e-04 0.0000e+00 1.0000e+00
<vert_displacement>
99.893445455676996
</vert_displacement>
</event>
<event>
 4   1200 +8.6263000e+09 1.39964100e-02 7.81665300e-03            nan
       50 -1    0    0    0    0 -9.7479185291e-03 +3.8146531397e-03 +5.1425499617e+00 5.1425630397e+00 4.9935713700e-03 0.0000e+00 0.0000e+00
       11 -1    0    0    0    0 -5.6557626312e-19 +2.2132696959e-19 +2.9837181974e-16 5.1100000000e-04 5.1099893000e-04 0.0000e+00 1.0000e+00
       50  1    1    2    0    0 -1.3303828710e-02 -8.7988663135e-03 +4.9693942815e+00 4.9694223882e+00 4.9935713700e-03 0.0000e+00 0.0000e+00
       11  1    1    2    0    0 +3.5559101812e-03 +1.2613519453e-02 +1.7315568018e-01 1.7365165150e-01 5.1099893000e-04 0.0000e+00 1.0000e+00
<vert_displacement>
265.95623753839504
</vert_displacement>
</event>
<event>
 4   1200 +8.6263000e+09 1.66167500e-02 7.81665300e-03            nan
       50 -1    0    0    0    0 -4.2322013364e-02 +4.6313075514e-02 +2.7041564614e+01 2.7041637853e+01 4.9935713700e-03 0.0000e+00 0.0000e+00
       11 -1    0    0    0    0 -1.5203781442e-19 +1.6637532624e-19 +9.7144253208e-17 5.1100000000e-04 5.1099893000e-04 0.0000e+00 1.0000e+00
       50  1    1    2    0    0 -5.3518714485e-02 +3.5072965381e-02 +2.6793509894e+01 2.6793586765e+01 4.9935713700e-03 0.0000e+00 0.0000e+00
       11  1    1    2    0    0 +1.1196701121e-02 +1.1240110134e-02 +2.4805472008e-01 2.4856208775e-01 5.1099893000e-04 0.0000e+00 1.0000e+00
<vert_displacement>
154.77840534997497
</vert_displacement>
</event>
<event>
 4   1200 +8.6263000e+09 1.59061900e-02 7.81665300e-03            nan
       50 -1    0    0    0    0 -4.5810449307e-03 +9.1898060090e-03 +4.0791557736e+00 4.0791717541e+00 4.9935713700e-03 0.0000e+00 0.0000e+00
       11 -1    0    0    0    0 +3.8963067109e-20 -7.8161867798e-20 -3.4694359597e-17 5.1100000000e-04 5.1099893000e-04 0.0000e+00 1.0000e+00
       50  1    1    2    0    0 +4.7247669987e-03 -3.4419646834e-03 +3.8421476987e+00 3.8421553905e+00 4.9935713700e-03 0.0000e+00 0.0000e+00
       11  1    1    2    0    0 -9.3058119294e-03 +1.2631770692e-02 +2.3700807490e-01 2.3752736359e-01 5.1099893000e-04 0.0000e+00 1.0000e+00
<vert_displacement>
441.52864632510483
</vert_displacement>
</event>
<event>
 4   1200 +8.6263000e+09 7.72725000e-03 7.81665300e-03            nan
       50 -1    0    0    0    0 -3.8708952227e-02 +6.4583003141e-02 +2.8487006466e+01 2.8487106411e+01 4.9935713700e-03 0.0000e+00 0.0000e+00
       11 -1    0    0    0    0 +8.2972849309e-19 -1.3843401795e-18 -6.1062053060e-16 5.1100000000e-04 5.1099893000e-04 0.0000e+00 1.0000e+00
       50  1    1    2    0    0 -3.9783421842e-02 +7.0295269428e-02 +2.8452924489e+01 2.8453039575e+01 4.9935713700e-03 0.0000e+00 0.0000e+00
       11  1    1    2    0    0 +1.0744696148e-03 -5.7122662867e-03 +3.4081977181e-02 3.4577836248e-02 5.1099893000e-04 0.0000e+00 1.0000e+00
<vert_displacement>
257.70179047278657
</vert_displacement>
</event>
<event>
 4   1200 +8.6263000e+09 2.10023900e-02 7.81665300e-03            nan
       50 -1    0    0    0    0 +0.0000000000e+00 +0.0000000000e+00 +6.1624959549e+01 6.1624959752e+01 4.9935713700e-03 0.0000e+00 0.0000e+00
       11 -1    0    0    0    0 +0.0000000000e+00 +0.0000000000e+00 +6.1617377867e-15 5.1100000000e-04 5.1099893000e-04 0.0000e+00 1.0000e+00
       50  1    1    2    0    0 +4.7996452534e-03 +1.9827459318e-02 +6.1215021942e+01 6.1215025545e+01 4.9935713700e-03 0.0000e+00 0.0000e+00
       11  1    1    2    0    0 -4.7996452534e-03 -1.9827459318e-02 +4.0993760706e-01 4.1044520650e-01 5.1099893000e-04 0.0000e+00 1.0000e+00
<vert_displacement>
379.42838668823242
</vert_displacement>
</event>
<event>
 4   1200 +8.6263000e+09 1.51170800e-02 7.81665300e-03            nan
       50 -1    0    0    0    0 +9.1343836238e-02 -6.5869909662e-02 +4.5513929586e+01 4.5514069186e+01 4.9935713700e-03 0.0000e+00 0.0000e+00
       11 -1    0    0    0    0 -5.7374781881e-18 +4.1374129389e-18 -2.8588155371e-15 5.1100000000e-04 5.1099893000e-04 0.0000e+00 1.0000e+00
       50  1    1    2    0    0 +7.8216037861e-02 -5.9128032175e-02 +4.5313874992e+01 4.5313981348e+01 4.9935713700e-03 0.0000e+00 0.0000e+00
       11  1    1    2    0    0 +1.3127798378e-02 -6.7418774871e-03 +2.0005459401e-01 2.0059883775e-01 5.1099893000e-04 0.0000e+00 1.0000e+00
<vert_displacement>
304.41416108666772
</vert_displacement>
</event>
<event>
 4   1200 +8.6263000e+09 2.33610800e-02 7.81665300e-03            nan
       50 -1    0    0    0    0 -1.0964372572e-01 +4.5955162626e-02 +4.6531556069e+01 4.6531708208e+01 4.9935713700e-03 0.0000e+00 0.0000e+00
       11 -1    0    0    0    0 +1.1281689141e-17 -4.7285137000e-18 -4.7878211671e-15 5.1100000000e-04 5.1099893000e-04 0.0000e+00 1.0000e+00
       50  1    1    2    0    0 -1.2252243311e-01 +6.3395908107e-02 +4.6016198422e+01 4.6016405476e+01 4.9935713700e-03 0.0000e+00 0.0000e+00
       11  1    1    2    0    0 +1.2878707398e-02 -1.7440745481e-02 +5.1535764770e-01 5.1581373273e-01 5.1099893000e-04 0.0000e+00 1.0000e+00
<vert_displacement>
202.74311910694956
</vert_displacement>
</event>
<event>
 4   1200 +8.6263000e+09 1.06358300e-02 7.81665300e-03            nan
       50 -1    0    0    0    0 +3.3434971165e-02 -9.0753007061e-02 +4.7935542141e+01 4.7935639969e+01 4.9935713700e-03 0.0000e+00 0.0000e+00
       11 -1    0    0    0    0 +2.5167264666e-19 -6.8311856370e-19 +3.6082174858e-16 5.1100000001e-04 5.1099893000e-04 0.0000e+00 1.0000e+00
       50  1    1    2    0    0 +3.4022885411e-02 -9.9957630390e-02 +4.7849080362e+01 4.7849197126e+01 4.9935713700e-03 0.0000e+00 0.0000e+00
       11  1    1    2    0    0 -5.8791424578e-04 +9.2046233287e-03 +8.6461778096e-02 8.6953843648e-02 5.1099893000e-04 0.0000e+00 1.0000e+00
<vert_displacement>
447.71476320995487
</vert_displacement>
</event>
<event>
 4   1200 +8.6263000e+09 7.54386100e-03 7.81665300e-03            nan
       50 -1    0    0    0    0 -6.1528948899e-03 -2.5351737365e-02 +1.5389397914e+01 1.5389420836e+01 4.9935713700e-03 0.0000e+00 0.0000e+00
       11 -1    0    0    0    0 +2.1639244443e-19 +8.9160054207e-19 -5.4123294686e-16 5.1100000000e-04 5.1099893000e-04 0.0000e+00 1.0000e+00
       50  1    1    2    0    0 -1.1333538643e-02 -2.7537267153e-02 +1.5358041391e+01 1.5358071072e+01 4.9935713700e-03 0.0000e+00 0.0000e+00
       11  1    1    2    0    0 +5.1806437528e-03 +2.1855297880e-03 +3.1356522905e-02 3.1860763625e-02 5.1099893000e-04 0.0000e+00 1.0000e+00
<vert_displacement>
316.32087380288738
</vert_displacement>
</event>
<event>
 4   1200 +8.6263000e+09 1.76214600e-02 7.81665300e-03            nan
       50 -1    0    0    0    0 -6.8088486131e-03 +2.1925911683e-02 +1.1483039217e+01 1.1483063255e+01 4.9935713700e-03 0.0000e+00 0.0000e+00
       11 -1    0    0    0    0 -7.4059148501e-20 +2.3848589411e-19 +1.2489984063e-16 5.1100000000e-04 5.1099893000e-04 0.0000e+00 1.0000e+00
       50  1    1    2    0    0 +9.8495468184e-03 +2.5081525085e-02 +1.1196428464e+01 1.1196462003e+01 4.9935713700e-03 0.0000e+00 0.0000e+00
       11  1    1    2    0    0 -1.6658395432e-02 -3.1556134024e-03 +2.8661075380e-01 2.8711225218e-01 5.1099893000e-04 0.0000e+00 1.0000e+00
<vert_displacement>
407.52963219320736
</vert_displacement>
</event>
<event>
 4   1200 +8.6263000e+09 2.21425300e-02 7.81665300e-03            nan
       50 -1    0    0    0    0 +2.1249805289e-03 -3.3480735450e-02 +2.4588133702e+01 2.4588157096e+01 4.9935713700e-03 0.0000e+00 0.0000e+00
       11 -1    0    0    0    0 +8.6353853791e-20 -1.3605727180e-18 +9.9919979211e-16 5.1100000000e-04 5.1099893000e-04 0.0000e+00 1.0000e+00
       50  1    1    2    0    0 -1.2635679721e-02 -1.7079782266e-02 +2.4124039815e+01 2.4124049687e+01 4.9935713700e-03 0.0000e+00 0.0000e+00
       11  1    1    2    0    0 +1.4760660250e-02 -1.6400953184e-02 +4.6409388739e-01 4.6461840880e-01 5.1099893000e-04 0.0000e+00 1.0000e+00
<vert_displacement>
192.74862170172855
</vert_displacement>
</event>
<event>
 4   1200 +8.6263000e+09 2.23843200e-02 7.81665300e-03            nan
       50 -1    0    0    0    0 +4.1957170189e-02 -1.8996061107e-02 +1.4823483001e+01 1.4823555392e+01 4.9935713700e-03 0.0000e+00 0.0000e+00
       11 -1    0    0    0    0 +9.8200587262e-20 -4.4460204250e-20 +3.4694302056e-17 5.1100000000e-04 5.1099893000e-04 0.0000e+00 1.0000e+00
       50  1    1    2    0    0 +6.2140185975e-02 -1.4931212870e-02 +1.4341870672e+01 1.4342013933e+01 4.9935713700e-03 0.0000e+00 0.0000e+00
       11  1    1    2    0    0 -2.0183015786e-02 -4.0648482365e-03 +4.8161232944e-01 4.8205245991e-01 5.1099893000e-04 0.0000e+00 1.0000e+00
<vert_displacement>
119.39676366909730
</vert_displacement>
</event>
<event>
 4   1200 +8.6263000e+09 2.63675100e-02 7.81665300e-03            nan
       50 -1    0    0    0    0 +1.0660632697e-03 -5.4362777539e-03 +3.3091382033e+00 3.3091466081e+00 4.9935713700e-03 0.0000e+00 0.0000e+00
       11 -1    0    0    0    0 -3.4648896811e-20 +1.7668841268e-19 -1.0755270480e-16 5.1100000000e-04 5.1099893000e-04 0.0000e+00 1.0000e+00
       50  1    1    2    0    0 -2.9629106946e-03 +2.4156761219e-02 +9.2965633092e-01 9.2998825655e-01 4.9935713700e-03 0.0000e+00 0.0000e+00
       11  1    1    2    0    0 +4.0289739643e-03 -2.9593038973e-02 +2.3794818724e+00 2.3796693515e+00 5.1099893000e-04 0.0000e+00 1.0000e+00
<vert_displacement>
17.805789402845864
</vert_displacement>
</event>
<event>
 4   1200 +8.6263000e+09 3.55838900e-02 7.81665300e-03            nan
       50 -1    0    0    0    0 -1.4044573104e-02 +2.4731719561e-02 +1.2201951507e+01 1.2201985676e+01 4.9935713700e-03 0.0000e+00 0.0000e+00
       11 -1    0    0    0    0 -8.0665845361e-19 +1.4204811003e-18 +7.0082638050e-16 5.1100000000e-04 5.1099893000e-04 0.0000e+00 1.0000e+00
       50  1    1    2    0    0 +1.9580394248e-02 +3.6589609690e-02 +1.0833598286e+01 1.0833678920e+01 4.9935713700e-03 0.0000e+00 0.0000e+00
       11  1    1    2    0    0 -3.3624967351e-02 -1.1857890129e-02 +1.3683532212e+00 1.3688177552e+00 5.1099893000e-04 0.0000e+00 1.0000e+00
<vert_displacement>
103.97043755497759
</vert_displacement>
</event>
<event>
 4   1200 +8.6263000e+09 2.31743800e-02 7.81665300e-03            nan
       50 -1    0    0    0    0 -4.5149263793e-02 +1.8466259123e-02 +1.5083004482e+01 1.5083084188e+01 4.9935713700e-03 0.0000e+00 0.0000e+00
       11 -1    0    0    0    0 +2.3263165565e-18 -9.5147430380e-19 -7.7715205302e-16 5.1100000000e-04 5.1099893000e-04 0.0000e+00 1.0000e+00
       50  1    1    2    0    0 -4.8054170720e-02 +4.0017262893e-02 +1.4563970572e+01 1.4564105683e+01 4.9935713700e-03 0.0000e+00 0.0000e+00
       11  1    1    2    0    0 +2.9049069278e-03 -2.1551003770e-02 +5.1903391012e-01 5.1948950444e-01 5.1099893000e-04 0.0000e+00 1.0000e+00
<vert_displacement>
330.89471054803420
</vert_displacement>
</event>
<event>
 4   1200 +8.6263000e+09 1.34781700e-02 7.81665300e-03            nan
       50 -1    0    0    0    0 -2.4276136803e-02 -2.5630221378e-02 +2.4853921705e+01 2.4853947277e+01 4.9935713700e-03 0.0000e+00 0.0000e+00
       11 -1    0    0    0    0 -1.6808390924e-18 -1.7745936427e-18 +1.7208439523e-15 5.1100000000e-04 5.1099893000e-04 0.0000e+00 1.0000e+00
       50  1    1    2    0    0 -1.1614718560e-02 -2.5015309328e-02 +2.4699620783e+01 2.4699636686e+01 4.9935713700e-03 0.0000e+00 0.0000e+00
       11  1    1    2    0    0 -1.2661418243e-02 -6.1491205018e-04 +1.5430092172e-01 1.5482159150e-01 5.1099893000e-04 0.0000e+00 1.0000e+00
<vert_displacement>
257.60795830096936
</vert_displacement>
</event>
<event>
 4   1200 +8.6263000e+09 1.31385600e-02 7.81665300e-03            nan
       50 -1    0    0    0    0 -6.5879314396e-02 -9.3607275373e-03 +2.3364991634e+01 2.3365086918e+01 4.9935713700e-03 0.0000e+00 0.0000e+00
       11 -1    0    0    0    0 +4.3433507391e-18 +6.1714247090e-19 -1.5404281999e-15 5.1100000000e-04 5.1099893000e-04 0.0000e+00 1.0000e+00
       50  1    1    2    0    0 -7.6569736205e-02 -4.3562042284e-03 +2.3219546970e+01 2.3219674165e+01 4.9935713700e-03 0.0000e+00 0.0000e+00
       11  1    1    2    0    0 +1.0690421809e-02 -5.0045233089e-03 +1.4544466372e-01 1.4592375303e-01 5.1099893000e-04 0.0000e+00 1.0000e+00
<vert_displacement>
215.17982422375738
</vert_displacement>
</event>
<event>
 4   1200 +8.6263000e+09 1.26693700e-02 7.81665300e-03            nan
       50 -1    0    0    0    0 -1.7411086956e-02 -1.3175225136e-03 +8.9379719164e+00 8.9379903668e+00 4.9935713700e-03 0.0000e+00 0.0000e+00
       11 -1    0    0    0    0 -1.0813500488e-19 -8.1827345875e-21 +5.5511045305e-17 5.1100000000e-04 5.1099893000e-04 0.0000e+00 1.0000e+00
       50  1    1    2    0    0 -2.0845456050e-02 +9.7436674747e-03 +8.8032647818e+00 8.8032962706e+00 4.9935713700e-03 0.0000e+00 0.0000e+00
       11  1    1    2    0    0 +3.4343690935e-03 -1.1061189988e-02 +1.3470713459e-01 1.3520509622e-01 5.1099893000e-04 0.0000e+00 1.0000e+00
<vert_displacement>
240.00495276204595
</vert_displacement>
</event>
<event>
 4   1200 +8.6263000e+09 2.55521500e-02 7.81665300e-03            nan
       50 -1    0    0    0    0 +1.6540054067e-02 -4.5028019999e-03 +5.9994091944e+00 5.9994357623e+00 4.9935713700e-03 0.0000e+00 0.0000e+00
       11 -1    0    0    0    0 +1.9130085667e-20 -5.2079024443e-21 +6.9388655793e-18 5.1100000000e-04 5.1099893000e-04 0.0000e+00 1.0000e+00
       50  1    1    2    0    0 +6.1364844952e-03 -2.7559643127e-02 +5.3039658473e+00 5.3040433478e+00 4.9935713700e-03 0.0000e+00 0.0000e+00
       11  1    1    2    0    0 +1.0403569571e-02 +2.3056841127e-02 +6.9544334710e-01 6.9590341451e-01 5.1099893000e-04 0.0000e+00 1.0000e+00
<vert_displacement>
350.02749988724577
</vert_displacement>
</event>
<event>
 4   1200 +8.6263000e+09 1.03758000e-02 7.81665300e-03            nan
       50 -1    0    0    0    0 +6.5385203580e-02 +7.7579876139e-03 +2.3197445346e+01 2.3197539330e+01 4.9935713700e-03 0.0000e+00 0.0000e+00
       11 -1    0    0    0    0 +1.1343728180e-18 +1.3459391100e-19 +4.0245422523e-16 5.1100000000e-04 5.1099893000e-04 0.0000e+00 1.0000e+00
       50  1    1    2    0    0 +7.4225589293e-02 +8.4149216788e-03 +2.3116192581e+01 2.3116313820e+01 4.9935713700e-03 0.0000e+00 0.0000e+00
       11  1    1    2    0    0 -8.8403857135e-03 -6.5693406492e-04 +8.1252765162e-02 8.1736509274e-02 5.1099893000e-04 0.0000e+00 1.0000e+00
<vert_displacement>
470.74978439015467
</vert_displacement>
</event>
<event>
 4   1200 +8.6263000e+09 7.54748800e-03 7.81665300e-03            nan
       50 -1    0    0    0    0 -2.5261227985e-02 +1.5052804698e-02 +1.2391673253e+01 1.2391709150e+01 4.9935713700e-03 0.0000e+00 0.0000e+00
       11 -1    0    0    0    0 -1.1457729060e-18 +6.8274969816e-19 +5.6204882367e-16 5.1100000000e-04 5.1099893000e-04 0.0000e+00 1.0000e+00
       50  1    1    2    0    0 -3.0548033165e-02 +1.3171521444e-02 +1.2360244192e+01 1.2360289968e+01 4.9935713700e-03 0.0000e+00 0.0000e+00
       11  1    1    2    0    0 +5.2868051804e-03 +1.8812832537e-03 +3.1429060746e-02 3.1930181882e-02 5.1099893000e-04 0.0000e+00 1.0000e+00
<vert_displacement>
24.630113005950570
</vert_displacement>
</event>
<event>
 4   1200 +8.6263000e+09 5.76899400e-03 7.81665300e-03            nan
       50 -1    0    0    0    0 +2.1650048022e-02 -4.7039838915e-03 +8.3523970597e+00 8.3524279363e+00 4.9935713700e-03 0.0000e+00 0.0000e+00
       11 -1    0    0    0    0 -8.6333170223e-19 +1.8757918764e-19 -3.3306573566e-16 5.1100000000e-04 5.1099893000e-04 0.0000e+00 1.0000e+00
       50  1    1    2    0    0 +1.8911567104e-02 -5.6801047985e-03 +8.3442291655e+00 8.3442540238e+00 4.9935713700e-03 0.0000e+00 0.0000e+00
       11  1    1    2    0    0 +2.7384809174e-03 +9.7612090700e-04 +8.1678941828e-03 8.6849124951e-03 5.1099893000e-04 0.0000e+00 1.0000e+00
<vert_displacement>
139.01143996545665
</vert_displacement>
</event>
<event>
 4   1200 +8.6263000e+09 1.15836600e-02 7.81665300e-03            nan
       50 -1    0    0    0    0 +2.3961478910e-02 +1.9450429816e-02 +1.1646619004e+01 1.1646660965e+01 4.9935713700e-03 0.0000e+00 0.0000e+00
       11 -1    0    0    0    0 -9.9931064367e-19 -8.1117787479e-19 -4.8572086794e-16 5.1100000000e-04 5.1099893000e-04 0.0000e+00 1.0000e+00
       50  1    1    2    0    0 +2.7619922831e-02 +9.5652069992e-03 +1.1538727513e+01 1.1538765615e+01 4.9935713700e-03 0.0000e+00 0.0000e+00
       11  1    1    2    0    0 -3.6584439212e-03 +9.8852228164e-03 +1.0789149043e-01 1.0840634976e-01 5.1099893000e-04 0.0000e+00 1.0000e+00
<vert_displacement>
455.07808361178786
</vert_displacement>
</event>
<event>
 4   1200 +8.6263000e+09 6.53444600e-03 7.81665300e-03            nan
       50 -1    0    0    0    0 +2.5862203762e-03 +7.9221385028e-04 +1.4005737522e+00 1.4005852660e+00 4.9935713700e-03 0.0000e+00 0.0000e+00
       11 -1    0    0    0    0 +5.1251782518e-20 +1.5699501997e-20 +2.7755523856e-17 5.1100000000e-04 5.1099893000e-04 0.0000e+00 1.0000e+00
       50  1    1    2    0    0 -1.4146242755e-03 +2.2019701163e-03 +1.3829677131e+00 1.3829792048e+00 4.9935713700e-03 0.0000e+00 0.0000e+00
       11  1    1    2    0    0 +4.0008446518e-03 -1.4097562660e-03 +1.7606039164e-02 1.8117061174e-02 5.1099893000e-04 0.0000e+00 1.0000e+00
<vert_displacement>
34.675305180137748
</vert_displacement>
</event>
<event>
 4   1200 +8.6263000e+09 1.94131000e-02 7.81665300e-03            nan
       50 -1    0    0    0    0 +1.8849874670e-02 +2.0624019027e-03 +7.8133260549e+00 7.8133506607e+00 4.9935713700e-03 0.0000e+00 0.0000e+00
       11 -1    0    0    0    0 -8.5375186066e-19 -9.3410672099e-20 -3.5388254692e-16 5.1100000000e-04 5.1099893000e-04 0.0000e+00 1.0000e+00
       50  1    1    2    0    0 -5.1413156412e-04 -1.1868698321e-03 +7.4522508994e+00 7.4522526847e+00 4.9935713700e-03 0.0000e+00 0.0000e+00
       11  1    1    2    0    0 +1.9364006234e-02 +3.2492717348e-03 +3.6107515548e-01 3.6160897601e-01 5.1099893000e-04 0.0000e+00 1.0000e+00
<vert_displacement>
266.87396680262259
</vert_displacement>
</event>
<event>
 4   1200 +8.6263000e+09 9.63971900e-03 7.81665300e-03            nan
       50 -1    0    0    0    0 -8.5322823881e-02 -6.9944107310e-02 +2.7393379562e+01 2.7393602190e+01 4.9935713700e-03 0.0000e+00 0.0000e+00
       11 -1    0    0    0    0 -4.2792880465e-18 -3.5079826091e-18 +1.3738898501e-15 5.1100000000e-04 5.1099893000e-04 0.0000e+00 1.0000e+00
       50  1    1    2    0    0 -7.7553238673e-02 -7.3061126656e-02 +2.7326706652e+01 2.7326914824e+01 4.9935713700e-03 0.0000e+00 0.0000e+00
       11  1    1    2    0    0 -7.7695852072e-03 +3.1170193462e-03 +6.6672909937e-02 6.7198365332e-02 5.1099893000e-04 0.0000e+00 1.0000e+00
<vert_displacement>
372.60691526388752
</vert_displacement>
</event>
<event>
 4   1200 +8.6263000e+09 1.30268500e-02 7.81665300e-03            nan
       50 -1    0    0    0    0 +1.8432580489e-02 -5.5172749776e-02 +2.1462703370e+01 2.1462782780e+01 4.9935713700e-03 0.0000e+00 0.0000e+00
       11 -1    0    0    0    0 -1.6089929155e-18 +4.8160681337e-18 -1.8734944730e-15 5.1100000000e-04 5.1099893000e-04 0.0000e+00 1.0000e+00
       50  1    1    2    0    0 +1.3844888341e-02 -6.5978658697e-02 +2.1320080274e+01 2.1320187445e+01 4.9935713700e-03 0.0000e+00 0.0000e+00
       11  1    1    2    0    0 +4.5876921487e-03 +1.0805908921e-02 +1.4262309638e-01 1.4310633573e-01 5.1099893000e-04 0.0000e+00 1.0000e+00
<vert_displacement>
172.33663018939120
</vert_displacement>
</event>
<event>
 4   1200 +8.6263000e+09 2.16007400e-02 7.81665300e-03            nan
       50 -1    0    0    0    0 +3.8833979991e-02 -2.7822114128e-02 +3.3347145200e+01 3.3347179792e+01 4.9935713700e-03 0.0000e+00 0.0000e+00
       11 -1    0    0    0    0 -3.5069758321e-18 +2.5125285089e-18 -3.0114768642e-15 5.1100000000e-04 5.1099893000e-04 0.0000e+00 1.0000e+00
       50  1    1    2    0    0 +4.1342603808e-02 -6.6590669422e-03 +3.2909249381e+01 3.2909276403e+01 4.9935713700e-03 0.0000e+00 0.0000e+00
       11  1    1    2    0    0 -2.5086238165e-03 -2.1163047185e-02 +4.3789581895e-01 4.3841438974e-01 5.1099893000e-04 0.0000e+00 1.0000e+00
<vert_displacement>
486.20431841462499
</vert_displacement>
</event>
<event>
 4   1200 +8.6263000e+09 9.35085800e-03 7.81665300e-03            nan
       50 -1    0    0    0    0 +1.4976913827e-02 -2.2528274037e-03 +4.3932387241e+00 4.3932676684e+00 4.9935713700e-03 0.0000e+00 0.0000e+00
       11 -1    0    0    0    0 +1.7031687923e-18 -2.5619065269e-19 +4.9959739228e-16 5.1100000000e-04 5.1099893000e-04 0.0000e+00 1.0000e+00
       50  1    1    2    0    0 +1.1032966124e-02 +4.7483133438e-03 +4.3312098380e+00 4.3312293716e+00 4.9935713700e-03 0.0000e+00 0.0000e+00
       11  1    1    2    0    0 +3.9439477026e-03 -7.0011407476e-03 +6.2028886098e-02 6.2549296765e-02 5.1099893000e-04 0.0000e+00 1.0000e+00
<vert_displacement>
12.671949205898917
</vert_displacement>
</event>
<event>
 4   1200 +8.6263000e+09 7.96989300e-03 7.81665300e-03            nan
       50 -1    0    0    0    0 -2.2905652108e-03 +5.6853008323e-03 +5.7269799222e+00 5.7269853792e+00 4.9935713700e-03 0.0000e+00 0.0000e+00
       11 -1    0    0    0    0 -1.4431462389e-19 +3.5819632964e-19 +3.6082227635e-16 5.1100000000e-04 5.1099893000e-04 0.0000e+00 1.0000e+00
       50  1    1    2    0    0 +2.4155371554e-03 +9.7192856148e-03 +5.6889681959e+00 5.6889792027e+00 4.9935713700e-03 0.0000e+00 0.0000e+00
       11  1    1    2    0    0 -4.7061023662e-03 -4.0339847825e-03 +3.8011726306e-02 3.8517176549e-02 5.1099893000e-04 0.0000e+00 1.0000e+00
<vert_displacement>
409.26113322565016
</vert_displacement>
</event>
<event>
 4   1200 +8.6263000e+09 1.34496200e-02 7.81665300e-03            nan
       50 -1    0    0    0    0 -3.2665162551e-02 -1.0521716283e-03 +1.5704585625e+01 1.5704620425e+01 4.9935713700e-03 0.0000e+00 0.0000e+00
       11 -1    0    0    0    0 -4.0411565981e-19 -1.3016896247e-20 +1.9428860860e-16 5.1100000000e-04 5.1099893000e-04 0.0000e+00 1.0000e+00
       50  1    1    2    0    0 -4.3321898940e-02 -6.9962427546e-03 +1.5550443662e+01 1.5550506382e+01 4.9935713700e-03 0.0000e+00 0.0000e+00
       11  1    1    2    0    0 +1.0656736389e-02 +5.9440711263e-03 +1.5414196313e-01 1.5462504302e-01 5.1099893000e-04 0.0000e+00 1.0000e+00
<vert_displacement>
350.26492028448649
</vert_displacement>
</event>
<event>
 4   1200 +8.6263000e+09 2.00723700e-02 7.81665300e-03            nan
       50 -1    0    0    0    0 +2.2951653090e-03 +1.3068502453e-02 +7.2322726688e+00 7.2322865641e+00 4.9935713700e-03 0.0000e+00 0.0000e+00
       11 -1    0    0    0    0 +4.4041154139e-20 +2.5076709230e-19 +1.3877764453e-16 5.1100000000e-04 5.1099893000e-04 0.0000e+00 1.0000e+00
       50  1    1    2    0    0 +2.1612148160e-02 +1.2452243891e-02 +6.8411958627e+00 6.8412431554e+00 4.9935713700e-03 0.0000e+00 0.0000e+00
       11  1    1    2    0    0 -1.9316982851e-02 +6.1625856151e-04 +3.9107680615e-01 3.9155440877e-01 5.1099893000e-04 0.0000e+00 1.0000e+00
<vert_displacement>
184.86536858248169
</vert_displacement>
</event>
<event>
 4   1200 +8.6263000e+09 2.34840900e-02 7.81665300e-03            nan
       50 -1    0    0    0    0 -4.8921874710e-03 +2.6814144768e-02 +1.1645320984e+01 1.1645353953e+01 4.9935713700e-03 0.0000e+00 0.0000e+00
       11 -1    0    0    0    0 -3.2648159813e-19 +1.7894499931e-18 +7.7715398850e-16 5.1100000000e-04 5.1099893000e-04 0.0000e+00 1.0000e+00
       50  1    1    2    0    0 +1.5883741730e-02 +3.5783041626e-02 +1.1104925794e+01 1.1104995927e+01 4.9935713700e-03 0.0000e+00 0.0000e+00
       11  1    1    2    0    0 -2.0775929201e-02 -8.9688968581e-03 +5.4039519003e-01 5.4086902562e-01 5.1099893000e-04 0.0000e+00 1.0000e+00
<vert_displacement>
243.50243450346298
</vert_displacement>
</event>
<event>
 4   1200 +8.6263000e+09 1.24744000e-02 7.81665300e-03            nan
       50 -1    0    0    0    0 -1.7258468329e-03 -9.1448603525e-03 +1.2231382010e+01 1.2231386569e+01 4.9935713700e-03 0.0000e+00 0.0000e+00
       11 -1    0    0    0    0 +1.3119631579e-19 +6.9517871675e-19 -9.2981151399e-16 5.1100000000e-04 5.1099893000e-04 0.0000e+00 1.0000e+00
       50  1    1    2    0    0 +8.7172002987e-03 -4.3580066554e-03 +1.2102151465e+01 1.2102156419e+01 4.9935713700e-03 0.0000e+00 0.0000e+00
       11  1    1    2    0    0 -1.0443047132e-02 -4.7868536972e-03 +1.2923054481e-01 1.2974115011e-01 5.1099893000e-04 0.0000e+00 1.0000e+00
<vert_displacement>
179.59702742990200
</vert_displacement>
</event>
<event>
 4   1200 +8.6263000e+09 1.34097300e-02 7.81665300e-03            nan
       50 -1    0    0    0    0 -2.2701853622e-03 -9.5434614949e-03 +1.1199535943e+01 1.1199541353e+01 4.9935713700e-03 0.0000e+00 0.0000e+00
       11 -1    0    0    0    0 +1.0689686385e-19 +4.4937568582e-19 -5.2735573440e-16 5.1100000000e-04 5.1099893000e-04 0.0000e+00 -1.0000e+00
       50  1    1    2    0    0 +4.1036116572e-04 -2.1572522350e-02 +1.1045855066e+01 1.1045877268e+01 4.9935713700e-03 0.0000e+00 0.0000e+00
       11  1    1    2    0    0 -2.6805465279e-03 +1.2029060855e-02 +1.5368087690e-01 1.5417508450e-01 5.1099893000e-04 0.0000e+00 -1.0000e+00
<vert_displacement>
297.54971951171632
</vert_displacement>
</event>
<event>
 4   1200 +8.6263000e+09 1.98958100e-02 7.81665300e-03            nan
       50 -1    0    0    0    0 +1.0952485862e-02 -3.4056171510e-02 +1.4472462764e+01 1.4472507840e+01 4.9935713700e-03 0.0000e+00 0.0000e+00
       11 -1    0    0    0    0 +7.4042025934e-19 -2.3022973651e-18 +9.7838105144e-16 5.1100000000e-04 5.1099893000e-04 0.0000e+00 1.0000e+00
       50  1    1    2    0    0 -3.2939800808e-03 -1.9916882213e-02 +1.4099963912e+01 1.4099979248e+01 4.9935713700e-03 0.0000e+00 0.0000e+00
       11  1    1    2    0    0 +1.4246465943e-02 -1.4139289296e-02 +3.7249885228e-01 3.7303959222e-01 5.1099893000e-04 0.0000e+00 1.0000e+00
<vert_displacement>
252.39592412790915
</vert_displacement>
</event>
<event>
 4   1200 +8.6263000e+09 1.49635700e-02 7.81665300e-03            nan
       50 -1    0    0    0    0 -6.2162929433e-04 +6.2228954754e-03 +1.1192723392e+01 1.1192726253e+01 4.9935713700e-03 0.0000e+00 0.0000e+00
       11 -1    0    0    0    0 +2.7747149694e-20 -2.7776620867e-19 -4.9960028310e-16 5.1100000000e-04 5.1099893000e-04 0.0000e+00 1.0000e+00
       50  1    1    2    0    0 -1.0871017364e-02 +1.5792410980e-02 +1.0994501132e+01 1.0994518983e+01 4.9935713700e-03 0.0000e+00 0.0000e+00
       11  1    1    2    0    0 +1.0249388070e-02 -9.5695155041e-03 +1.9822225939e-01 1.9871826997e-01 5.1099893000e-04 0.0000e+00 1.0000e+00
<vert_displacement>
29.164058052131832
</vert_displacement>
</event>
<event>
 4   1200 +8.6263000e+09 9.30832900e-03 7.81665300e-03            nan
       50 -1    0    0    0    0 -1.7557329888e-02 -1.9481607040e-02 +9.5712533598e+00 9.5712905925e+00 4.9935713700e-03 0.0000e+00 0.0000e+00
       11 -1    0    0    0    0 +1.4001383743e-19 +1.5535930453e-19 -7.6327546413e-17 5.1100000000e-04 5.1099893000e-04 0.0000e+00 1.0000e+00
       50  1    1    2    0    0 -2.4041033826e-02 -2.3625511315e-02 +9.5104618887e+00 9.5105229304e+00 4.9935713700e-03 0.0000e+00 0.0000e+00
       11  1    1    2    0    0 +6.4837039381e-03 +4.1439042756e-03 +6.0791471085e-02 6.1278662158e-02 5.1099893000e-04 0.0000e+00 1.0000e+00
<vert_displacement>
242.46567610848078
</vert_displacement>
</event>
<event>
 4   1200 +8.6263000e+09 9.54071400e-03 7.81665300e-03            nan
       50 -1    0    0    0    0 +2.4080559137e-02 -1.6473964386e-03 +7.2809921664e+00 7.2810338860e+00 4.9935713700e-03 0.0000e+00 0.0000e+00
       11 -1    0    0    0    0 -2.8227276360e-18 +1.9310811796e-19 -8.5347926052e-16 5.1100000000e-04 5.1099893000e-04 0.0000e+00 1.0000e+00
       50  1    1    2    0    0 +2.0527481703e-02 +5.7803357003e-03 +7.2157470523e+00 7.2157802938e+00 4.9935713700e-03 0.0000e+00 0.0000e+00
       11  1    1    2    0    0 +3.5530774342e-03 -7.4277321388e-03 +6.5245114087e-02 6.5764592267e-02 5.1099893000e-04 0.0000e+00 1.0000e+00
<vert_displacement>
65.635825736573437
</vert_displacement>
</event>
<event>
 4   1200 +8.6263000e+09 7.52323700e-03 7.81665300e-03            nan
       50 -1    0    0    0    0 -2.1024881147e-03 -3.1314529801e-04 +1.1643964504e+00 1.1644090982e+00 4.9935713700e-03 0.0000e+00 0.0000e+00
       11 -1    0    0    0    0 -2.9443542593e-19 -4.3853312918e-20 +1.6306373502e-16 5.1100000000e-04 5.1099893000e-04 0.0000e+00 1.0000e+00
       50  1    1    2    0    0 +3.4765410991e-03 +7.8023022937e-04 +1.1325198271e+00 1.1325364407e+00 4.9935713700e-03 0.0000e+00 0.0000e+00
       11  1    1    2    0    0 -5.5790292138e-03 -1.0933755274e-03 +3.1876623272e-02 3.2383657424e-02 5.1099893000e-04 0.0000e+00 1.0000e+00
<vert_displacement>
328.30021847054712
</vert_displacement>
</event>
<event>
 4   1200 +8.6263000e+09 2.43512900e-02 7.81665300e-03            nan
       50 -1    0    0    0    0 +4.4803555908e-02 +6.6863843020e-04 +1.7442151832e+01 1.7442210103e+01 4.9935713700e-03 0.0000e+00 0.0000e+00
       11 -1    0    0    0    0 +2.1388606045e-18 +3.1919886001e-20 +8.3266452082e-16 5.1100000000e-04 5.1099893000e-04 0.0000e+00 1.0000e+00
       50  1    1    2    0    0 +2.5057296547e-02 +1.5952265600e-02 +1.6867393284e+01 1.6867420179e+01 4.9935713700e-03 0.0000e+00 0.0000e+00
       11  1    1    2    0    0 +1.9746259361e-02 -1.5283627170e-02 +5.7475854780e-01 5.7530092422e-01 5.1099893000e-04 0.0000e+00 1.0000e+00
<vert_displacement>
174.48062655578047
</vert_displacement>
</event>
<event>
 4   1200 +8.6263000e+09 7.41957800e-03 7.81665300e-03            nan
       50 -1    0    0    0    0 +2.4202628773e-02 -3.5719124188e-02 +1.4458000309e+01 1.4458065551e+01 4.9935713700e-03 0.0000e+00 0.0000e+00
       11 -1    0    0    0    0 -1.0686375993e-18 +1.5771344294e-18 -6.3837539653e-16 5.1100000000e-04 5.1099893000e-04 0.0000e+00 1.0000e+00
       50  1    1    2    0    0 +2.4054828821e-02 -4.1132934818e-02 +1.4428459472e+01 1.4428539019e+01 4.9935713700e-03 0.0000e+00 0.0000e+00
       11  1    1    2    0    0 +1.4779995153e-04 +5.4138106304e-03 +2.9540836782e-02 3.0037532323e-02 5.1099893000e-04 0.0000e+00 1.0000e+00
<vert_displacement>
194.62381540505433
</vert_displacement>
</event>
<event>
 4   1200 +8.6263000e+09 1.48549700e-02 7.81665300e-03            nan
       50 -1    0    0    0    0 +1.5483351532e-01 -8.3649303151e-02 +4.5627478993e+01 4.5627818650e+01 4.9935713700e-03 0.0000e+00 0.0000e+00
       11 -1    0    0    0    0 +4.3325475724e-18 -2.3406727190e-18 +1.2767469817e-15 5.1100000000e-04 5.1099893000e-04 0.0000e+00 1.0000e+00
       50  1    1    2    0    0 +1.4767149238e-01 -9.5680662347e-02 +4.5435145655e+01 4.5435486652e+01 4.9935713700e-03 0.0000e+00 0.0000e+00
       11  1    1    2    0    0 +7.1620229358e-03 +1.2031359196e-02 +1.9233333760e-01 1.9284299844e-01 5.1099893000e-04 0.0000e+00 1.0000e+00
<vert_displacement>
414.35478374979886
</vert_displacement>
</event>
<event>
 4   1200 +8.6263000e+09 3.04283700e-02 7.81665300e-03            nan
       50 -1    0    0    0    0 +1.2993537164e-02 -1.9344493306e-02 +9.0706506345e+00 9.0706819430e+00 4.9935713700e-03 0.0000e+00 0.0000e+00
       11 -1    0    0    0    0 +1.5903684429e-18 -2.3677056761e-18 +1.1102193608e-15 5.1100000000e-04 5.1099893000e-04 0.0000e+00 1.0000e+00
       50  1    1    2    0    0 -1.3592593327e-02 -3.3589291696e-02 +8.0807263805e+00 8.0808091656e+00 4.9935713700e-03 0.0000e+00 0.0000e+00
       11  1    1    2    0    0 +2.6586130491e-02 +1.4244798390e-02 +9.8992425408e-01 9.9038377740e-01 5.1099893000e-04 0.0000e+00 1.0000e+00
<vert_displacement>
448.29543354297709
</vert_displacement>
</event>
<event>
 4   1200 +8.6263000e+09 8.02537500e-03 7.81665300e-03            nan
       50 -1    0    0    0    0 -6.8874913526e-03 -5.6347403033e-03 +2.3496532456e+00 2.3496754027e+00 4.9935713700e-03 0.0000e+00 0.0000e+00
       11 -1    0    0    0    0 +9.1528624908e-19 +7.4880679376e-19 -3.1224798634e-16 5.1100000000e-04 5.1099893000e-04 0.0000e+00 1.0000e+00
       50  1    1    2    0    0 -4.9856607095e-04 -5.8732075234e-03 +2.3103775621e+00 2.3103904775e+00 4.9935713700e-03 0.0000e+00 0.0000e+00
       11  1    1    2    0    0 -6.3889252816e-03 +2.3846722005e-04 +3.9275683463e-02 3.9795925222e-02 5.1099893000e-04 0.0000e+00 1.0000e+00
<vert_displacement>
389.95167129065374
</vert_displacement>
</event>
<event>
 4   1200 +8.6263000e+09 1.17218400e-02 7.81665300e-03            nan
       50 -1    0    0    0    0 -5.0941045810e-02 +3.4387106143e-02 +2.3138695943e+01 2.3138778108e+01 4.9935713700e-03 0.0000e+00 0.0000e+00
       11 -1    0    0    0    0 +2.6275206597e-18 -1.7736744580e-18 -1.1934855412e-15 5.1100000000e-04 5.1099893000e-04 0.0000e+00 1.0000e+00
       50  1    1    2    0    0 -5.1157659747e-02 +4.4817770177e-02 +2.3028103324e+01 2.3028204302e+01 4.9935713700e-03 0.0000e+00 0.0000e+00
       11  1    1    2    0    0 +2.1661393748e-04 -1.0430664034e-02 +1.1059261929e-01 1.1108480650e-01 5.1099893000e-04 0.0000e+00 1.0000e+00
<vert_displacement>
151.17606206673440
</vert_displacement>
</event>
<event>
 4   1200 +8.6263000e+09 1.01618700e-02 7.81665300e-03            nan
       50 -1    0    0    0    0 +4.0085072617e-03 +8.3747777861e-03 +3.3008808914e+00 3.3008977264e+00 4.9935713700e-03 0.0000e+00 0.0000e+00
       11 -1    0    0    0    0 +5.0558316073e-20 +1.0562901218e-19 +4.1633198728e-17 5.1100000000e-04 5.1099893000e-04 0.0000e+00 1.0000e+00
       50  1    1    2    0    0 -4.9308140811e-03 +7.8405286870e-03 +3.2223569422e+00 3.2223741225e+00 4.9935713700e-03 0.0000e+00 0.0000e+00
       11  1    1    2    0    0 +8.9393213428e-03 +5.3424909919e-04 +7.8523949223e-02 7.9034603874e-02 5.1099893000e-04 0.0000e+00 1.0000e+00
<vert_displacement>
263.99749642889356
</vert_displacement>
</event>
<event>
 4   1200 +8.6263000e+09 1.77899000e-02 7.81665300e-03            nan
       50 -1    0    0    0    0 +1.6470834623e-02 +6.6431193822e-04 +5.6646250271e+00 5.6646512128e+00 4.9935713700e-03 0.0000e+00 0.0000e+00
       11 -1    0    0    0    0 -1.3316091898e-18 -5.3707289405e-20 -4.5796505858e-16 5.1100000000e-04 5.1099893000e-04 0.0000e+00 1.0000e+00
       50  1    1    2    0    0 +2.9926874705e-02 +9.9093277028e-03 +5.3631838562e+00 5.3632788315e+00 4.9935713700e-03 0.0000e+00 0.0000e+00
       11  1    1    2    0    0 -1.3456040082e-02 -9.2450157645e-03 +3.0144117083e-01 3.0188338133e-01 5.1099893000e-04 0.0000e+00 1.0000e+00
<vert_displacement>
435.61452296717630
</vert_displacement>
</event>
<event>
 4   1200 +8.6263000e+09 6.37642400e-03 7.81665300e-03            nan
       50 -1    0    0    0    0 -1.1614914160e-02 +1.2002710927e-02 +5.1347812820e+00 5.1348108749e+00 4.9935713700e-03 0.0000e+00 0.0000e+00
       11 -1    0    0    0    0 +2.8252345576e-19 -2.9195630057e-19 -1.2489942951e-16 5.1100000000e-04 5.1099893000e-04 0.0000e+00 1.0000e+00
       50  1    1    2    0    0 -1.3395777399e-02 +8.4415864981e-03 +5.1193527946e+00 5.1193797162e+00 4.9935713700e-03 0.0000e+00 0.0000e+00
       11  1    1    2    0    0 +1.7808632397e-03 +3.5611244289e-03 +1.5428487465e-02 1.5942158776e-02 5.1099893000e-04 0.0000e+00 1.0000e+00
<vert_displacement>
339.82909692371976
</vert_displacement>
</event>
<event>
 4   1200 +8.6263000e+09 1.46876000e-02 7.81665300e-03            nan
       50 -1    0    0    0    0 -9.6347754962e-02 -8.8388823359e-02 +4.0369076910e+01 4.0369288958e+01 4.9935713700e-03 0.0000e+00 0.0000e+00
       11 -1    0    0    0    0 -4.3058024231e-18 -3.9501160141e-18 +1.8041029523e-15 5.1100000000e-04 5.1099893000e-04 0.0000e+00 -1.0000e+00
       50  1    1    2    0    0 -1.0846428724e-01 -9.3716607955e-02 +4.0181478258e+01 4.0181734248e+01 4.9935713700e-03 0.0000e+00 0.0000e+00
       11  1    1    2    0    0 +1.2116532282e-02 +5.3277845960e-03 +1.8759865265e-01 1.8806570990e-01 5.1099893000e-04 0.0000e+00 -1.0000e+00
<vert_displacement>
439.46806621913345
</vert_displacement>
</event>
<event>
 4   1200 +8.6263000e+09 5.51529400e-02 7.81665300e-03            nan
       50 -1    0    0    0    0 -1.7801271500e-02 -2.0033733020e-02 +1.5950029079e+01 1.5950052376e+01 4.9935713700e-03 0.0000e+00 0.0000e+00
       11 -1    0    0    0    0 +2.4936474347e-18 +2.8063763285e-18 -2.2343206831e-15 5.1100000000e-04 5.1099893000e-04 0.0000e+00 1.0000e+00
       50  1    1    2    0    0 +1.5900196900e-02 +3.1320044044e-02 +1.2036171386e+01 1.2036223674e+01 4.9935713700e-03 0.0000e+00 0.0000e+00
       11  1    1    2    0    0 -3.3701468399e-02 -5.1353777064e-02 +3.9138576926e+00 3.9143397014e+00 5.1099893000e-04 0.0000e+00 1.0000e+00
<vert_displacement>
46.239102338037412
</vert_displacement>
</event>
<event>
 4   1200 +8.6263000e+09 1.08303900e-02 7.81665300e-03            nan
       50 -1    0    0    0    0 +2.1749787942e-02 -2.3626085398e-02 +2.4887207233e+01 2.4887228453e+01 4.9935713700e-03 0.0000e+00 0.0000e+00
       11 -1    0    0    0    0 +4.8513067428e-19 -5.2698163173e-19 +5.5511105019e-16 5.1100000000e-04 5.1099893000e-04 0.0000e+00 1.0000e+00
       50  1    1    2    0    0 +1.8956689282e-02 -3.2759337839e-02 +2.4796494832e+01 2.4796524220e+01 4.9935713700e-03 0.0000e+00 0.0000e+00
       11  1    1    2    0    0 +2.7930986601e-03 +9.1332524414e-03 +9.0712401647e-02 9.1215232460e-02 5.1099893000e-04 0.0000e+00 1.0000e+00
<vert_displacement>
296.33555644029298
</vert_displacement>
</event>
<event>
 4   1200 +8.6263000e+09 5.55007100e-03 7.81665300e-03            nan
       50 -1    0    0    0    0 -2.9665942271e-03 +7.3032059348e-03 +5.1264844645e+00 5.1264929570e+00 4.9935713700e-03 0.0000e+00 0.0000e+00
       11 -1    0    0    0    0 +9.6369471461e-20 -2.3724380284e-19 -1.6653325682e-16 5.1100000000e-04 5.1099893000e-04 0.0000e+00 1.0000e+00
       50  1    1    2    0    0 -6.4400431199e-04 +6.5960601547e-03 +5.1207385371e+00 5.1207452605e+00 4.9935713700e-03 0.0000e+00 0.0000e+00
       11  1    1    2    0    0 -2.3225899151e-03 +7.0714578017e-04 +5.7459274886e-03 6.2586964840e-03 5.1099893000e-04 0.0000e+00 1.0000e+00
<vert_displacement>
272.33328827470740
</vert_displacement>
</event>
<event>
 4   1200 +8.6263000e+09 1.06543100e-02 7.81665300e-03            nan
       50 -1    0    0    0    0 +1.3952505088e-02 -2.2324960684e-02 +1.8262430924e+01 1.8262450583e+01 4.9935713700e-03 0.0000e+00 0.0000e+00
       11 -1    0    0    0    0 +1.6115989761e-18 -2.5786683863e-18 +2.1094215550e-15 5.1100000000e-04 5.1099893000e-04 0.0000e+00 1.0000e+00
       50  1    1    2    0    0 +1.4512562570e-02 -3.1609222433e-02 +1.8175329062e+01 1.8175363029e+01 4.9935713700e-03 0.0000e+00 0.0000e+00
       11  1    1    2    0    0 -5.6005748272e-04 +9.2842617492e-03 +8.7101861993e-02 8.7598554001e-02 5.1099893000e-04 0.0000e+00 1.0000e+00
<vert_displacement>
271.01616408929448
</vert_displacement>
</event>
<event>
 4   1200 +8.6263000e+09 1.92498900e-02 7.81665300e-03            nan
       50 -1    0    0    0    0 +5.7281782632e-02 -4.4424961746e-02 +1.9141186189e+01 1.9141324104e+01 4.9935713700e-03 0.0000e+00 0.0000e+00
       11 -1    0    0    0    0 +2.8655889670e-18 -2.2224112866e-18 +9.5756049199e-16 5.1100000000e-04 5.1099893000e-04 0.0000e+00 1.0000e+00
       50  1    1    2    0    0 +6.4799572050e-02 -2.7116663931e-02 +1.8796805652e+01 1.8796937568e+01 4.9935713700e-03 0.0000e+00 0.0000e+00
       11  1    1    2    0    0 -7.5177894183e-03 -1.7308297816e-02 +3.4438053778e-01 3.4489753588e-01 5.1099893000e-04 0.0000e+00 1.0000e+00
<vert_displacement>
324.80890022448750
</vert_displacement>
</event>
<event>
 4   1200 +8.6263000e+09 1.38744800e-02 7.81665300e-03            nan
       50 -1    0    0    0    0 -5.2738067849e-02 -1.0221951561e-02 +1.8241960537e+01 1.8242040318e+01 4.9935713700e-03 0.0000e+00 0.0000e+00
       11 -1    0    0    0    0 -6.9409220257e-18 -1.3453236273e-18 +2.4008468806e-15 5.1100000000e-04 5.1099893000e-04 0.0000e+00 1.0000e+00
       50  1    1    2    0    0 -6.4784531305e-02 -6.8592121728e-03 +1.8076460966e+01 1.8076579048e+01 4.9935713700e-03 0.0000e+00 0.0000e+00
       11  1    1    2    0    0 +1.2046463457e-02 -3.3627393880e-03 +1.6549957178e-01 1.6597227080e-01 5.1099893000e-04 0.0000e+00 1.0000e+00
<vert_displacement>
411.13748601708943
</vert_displacement>
</event>
<event>
 4   1200 +8.6263000e+09 1.74738100e-02 7.81665300e-03            nan
       50 -1    0    0    0    0 +7.5110777072e-02 -7.0920980910e-02 +2.7476548758e+01 2.7476743403e+01 4.9935713700e-03 0.0000e+00 0.0000e+00
       11 -1    0    0    0    0 +1.0849838661e-17 -1.0244617757e-17 +3.9690192620e-15 5.1100000000e-04 5.1099893000e-04 0.0000e+00 1.0000e+00
       50  1    1    2    0    0 +6.4216345629e-02 -8.3533901277e-02 +2.7199378354e+01 2.7199582891e+01 4.9935713700e-03 0.0000e+00 0.0000e+00
       11  1    1    2    0    0 +1.0894431443e-02 +1.2612920366e-02 +2.7717040414e-01 2.7767151177e-01 5.1099893000e-04 0.0000e+00 1.0000e+00
<vert_displacement>
57.767441845731987
</vert_displacement>
</event>
<event>
 4   1200 +8.6263000e+09 2.02412800e-02 7.81665300e-03            nan
       50 -1    0    0    0    0 -3.1658648977e-02 +1.3985082067e-02 +1.3638624514e+01 1.3638669342e+01 4.9935713700e-03 0.0000e+00 0.0000e+00
       11 -1    0    0    0    0 +7.7312886976e-19 -3.4152659830e-19 -3.3306583498e-16 5.1100000000e-04 5.1099893000e-04 0.0000e+00 1.0000e+00
       50  1    1    2    0    0 -5.0345024956e-02 +1.4665820020e-02 +1.3251043133e+01 1.3251147828e+01 4.9935713700e-03 0.0000e+00 0.0000e+00
       11  1    1    2    0    0 +1.8686375980e-02 -6.8073795322e-04 +3.8758138073e-01 3.8803251392e-01 5.1099893000e-04 0.0000e+00 1.0000e+00
<vert_displacement>
263.62882501362913
</vert_displacement>
</event>
<event>
 4   1200 +8.6263000e+09 5.65184200e-03 7.81665300e-03            nan
       50 -1    0    0    0    0 -5.8549002588e-03 +1.0657301449e-02 +4.9811767381e+00 4.9811940827e+00 4.9935713700e-03 0.0000e+00 0.0000e+00
       11 -1    0    0    0    0 +2.4467959762e-20 -4.4537466312e-20 -2.0816619688e-17 5.1100000000e-04 5.1099893000e-04 0.0000e+00 1.0000e+00
       50  1    1    2    0    0 -6.7658611194e-03 +8.1600848031e-03 +4.9743140518e+00 4.9743278526e+00 4.9935713700e-03 0.0000e+00 0.0000e+00
       11  1    1    2    0    0 +9.1096086064e-04 +2.4972166460e-03 +6.8626862520e-03 7.3772300470e-03 5.1099893000e-04 0.0000e+00 1.0000e+00
<vert_displacement>
80.852980417368912
</vert_displacement>
</event>
<event>
 4   1200 +8.6263000e+09 1.76908000e-02 7.81665300e-03            nan
       50 -1    0    0    0    0 -1.9289062326e-02 +6.4742877655e-03 +8.6488230359e+00 8.6488484104e+00 4.9935713700e-03 0.0000e+00 0.0000e+00
       11 -1    0    0    0    0 -3.4045979358e-19 +1.1427381171e-19 +1.5265524346e-16 5.1100000000e-04 5.1099893000e-04 0.0000e+00 1.0000e+00
       50  1    1    2    0    0 -3.3481100600e-02 -1.9735513109e-03 +8.3570855159e+00 8.3571543084e+00 4.9935713700e-03 0.0000e+00 0.0000e+00
       11  1    1    2    0    0 +1.4192038274e-02 +8.4478390764e-03 +2.9173751997e-01 2.9220510196e-01 5.1099893000e-04 0.0000e+00 1.0000e+00
<vert_displacement>
289.61449536923504
</vert_displacement>
</event>
<event>
 4   1200 +8.6263000e+09 2.43940300e-02 7.81665300e-03            nan
       50 -1    0    0    0    0 -2.2171922736e-03 -1.3428911847e-02 +7.1306138272e+00 7.1306285655e+00 4.9935713700e-03 0.0000e+00 0.0000e+00
       11 -1    0    0    0    0 -2.0281204731e-19 -1.2283756972e-18 +6.5225483875e-16 5.1100000000e-04 5.1099893000e-04 0.0000e+00 1.0000e+00
       50  1    1    2    0    0 -2.2978143909e-02 -2.3733755690e-02 +6.5202727205e+00 6.5203583162e+00 4.9935713700e-03 0.0000e+00 0.0000e+00
       11  1    1    2    0    0 +2.0760951635e-02 +1.0304843843e-02 +6.1034110667e-01 6.1078124933e-01 5.1099893000e-04 0.0000e+00 1.0000e+00
<vert_displacement>
388.53257147941667
</vert_displacement>
</event>
<event>
 4   1200 +8.6263000e+09 6.77869300e-03 7.81665300e-03            nan
       50 -1    0    0    0    0 -7.0047270081e-02 +1.4610827331e-02 +2.5010704833e+01 2.5010807689e+01 4.9935713700e-03 0.0000e+00 0.0000e+00
       11 -1    0    0    0    0 -8.6285282122e-18 +1.7997837130e-18 +3.0808562847e-15 5.1100000000e-04 5.1099893000e-04 0.0000e+00 1.0000e+00
       50  1    1    2    0    0 -7.4021232516e-02 +1.2416828057e-02 +2.4990114983e+01 2.4990228193e+01 4.9935713700e-03 0.0000e+00 0.0000e+00
       11  1    1    2    0    0 +3.9739624353e-03 +2.1939992742e-03 +2.0589849769e-02 2.1090496525e-02 5.1099893000e-04 0.0000e+00 1.0000e+00
<vert_displacement>
245.54488715461983
</vert_displacement>
</event>
<event>
 4   1200 +8.6263000e+09 9.51106900e-03 7.81665300e-03            nan
       50 -1    0    0    0    0 -7.0119464080e-03 -9.5480471376e-04 +2.7827581964e+00 2.7827716749e+00 4.9935713700e-03 0.0000e+00 0.0000e+00
       11 -1    0    0    0    0 +1.0140980648e-18 +1.3808799385e-19 -4.0245454509e-16 5.1100000000e-04 5.1099893000e-04 0.0000e+00 1.0000e+00
       50  1    1    2    0    0 -1.3516753354e-02 -5.5182250059e-03 +2.7170498423e+00 2.7170936558e+00 4.9935713700e-03 0.0000e+00 0.0000e+00
       11  1    1    2    0    0 +6.5048069464e-03 +4.5634202921e-03 +6.5708354145e-02 6.6189019048e-02 5.1099893000e-04 0.0000e+00 1.0000e+00
<vert_displacement>
31.946922576021517
</vert_displacement>
</event>
<event>
 4   1200 +8.6263000e+09 4.68144600e-02 7.81665300e-03            nan
       50 -1    0    0    0    0 -3.2400681279e-03 -2.8522303949e-02 +1.1890795755e+01 1.1890831453e+01 4.9935713700e-03 0.0000e+00 0.0000e+00
       11 -1    0    0    0    0 -8.8864860248e-20 -7.8227693194e-19 +3.2612706316e-16 5.1100000000e-04 5.1099893000e-04 0.0000e+00 1.0000e+00
       50  1    1    2    0    0 +3.0861173926e-02 -5.4366707485e-02 +9.1269223928e+00 9.1271378564e+00 4.9935713700e-03 0.0000e+00 0.0000e+00
       11  1    1    2    0    0 -3.4101242054e-02 +2.5844403537e-02 +2.7638733620e+00 2.7642045963e+00 5.1099893000e-04 0.0000e+00 1.0000e+00
<vert_displacement>
189.48403081469900
</vert_displacement>
</event>
<event>
 4   1200 +8.6263000e+09 5.19569200e-03 7.81665300e-03            nan
       50 -1    0    0    0    0 +1.8852531245e-02 +5.0698327482e-03 +6.8209573022e+00 6.8209870675e+00 4.9935713700e-03 0.0000e+00 0.0000e+00
       11 -1    0    0    0    0 -4.9863889862e-19 -1.3409423832e-19 -1.8041050257e-16 5.1100000000e-04 5.1099893000e-04 0.0000e+00 1.0000e+00
       50  1    1    2    0    0 +2.0140273788e-02 +5.6902563363e-03 +6.8189373932e+00 6.8189713387e+00 4.9935713700e-03 0.0000e+00 0.0000e+00
       11  1    1    2    0    0 -1.2877425429e-03 -6.2042358817e-04 +2.0199089261e-03 2.5267287669e-03 5.1099893000e-04 0.0000e+00 1.0000e+00
<vert_displacement>
72.663798522087433
</vert_displacement>
</event>
<event>
 4   1200 +8.6263000e+09 1.30702800e-02 7.81665300e-03            nan
       50 -1    0    0    0    0 +1.3955355002e-02 +1.2079592990e-02 +1.4227538862e+01 1.4227551710e+01 4.9935713700e-03 0.0000e+00 0.0000e+00
       11 -1    0    0    0    0 +4.6281763909e-19 +4.0060956587e-19 +4.7184438842e-16 5.1100000000e-04 5.1099893000e-04 0.0000e+00 1.0000e+00
       50  1    1    2    0    0 +9.8194820008e-03 +5.5798098063e-04 +1.4083327236e+01 1.4083331555e+01 4.9935713700e-03 0.0000e+00 0.0000e+00
       11  1    1    2    0    0 +4.1358730009e-03 +1.1521612009e-02 +1.4421162592e-01 1.4473115476e-01 5.1099893000e-04 0.0000e+00 1.0000e+00
<vert_displacement>
68.765780079947788
</vert_displacement>
</event>
<event>
 4   1200 +8.6263000e+09 2.32797600e-02 7.81665300e-03            nan
       50 -1    0    0    0    0 -1.0554869129e-02 -2.7469711834e-03 +3.5683274307e+00 3.5683475923e+00 4.9935713700e-03 0.0000e+00 0.0000e+00
       11 -1    0    0    0    0 +4.1049357931e-19 +1.0683354001e-19 -1.3877722985e-16 5.1100000000e-04 5.1099893000e-04 0.0000e+00 -1.0000e+00
       50  1    1    2    0    0 -6.5207882514e-03 +2.0352422944e-02 +2.9569219554e+00 2.9570034034e+00 4.9935713700e-03 0.0000e+00 0.0000e+00
       11  1    1    2    0    0 -4.0340808775e-03 -2.3099394128e-02 +6.1140547531e-01 6.1185518890e-01 5.1099893000e-04 0.0000e+00 -1.0000e+00
<vert_displacement>
110.91111997524600
</vert_displacement>
</event>
<event>
 4   1200 +8.6263000e+09 1.14026500e-02 7.81665300e-03            nan
       50 -1    0    0    0    0 +0.0000000000e+00 +0.0000000000e+00 +6.5674530750e+01 6.5674530940e+01 4.9935713700e-03 0.0000e+00 0.0000e+00
       11 -1    0    0    0    0 +0.0000000000e+00 +0.0000000000e+00 -7.2442052357e-15 5.1100000000e-04 5.1099893000e-04 0.0000e+00 1.0000e+00
       50  1    1    2    0    0 -7.6524901030e-03 -6.8208517851e-03 +6.5571545871e+01 6.5571546863e+01 4.9935713700e-03 0.0000e+00 0.0000e+00
       11  1    1    2    0    0 +7.6524901030e-03 +6.8208517851e-03 +1.0298487847e-01 1.0349507687e-01 5.1099893000e-04 0.0000e+00 1.0000e+00
<vert_displacement>
353.64338755607605
</vert_displacement>
</event>
<event>
 4   1200 +8.6263000e+09 8.69300400e-03 7.81665300e-03            nan
       50 -1    0    0    0    0 -2.8594787519e-03 +3.3220191401e-02 +1.3199144538e+01 1.3199187597e+01 4.9935713700e-03 0.0000e+00 0.0000e+00
       11 -1    0    0    0    0 +1.6235052824e-19 -1.8861184469e-18 -7.4939815051e-16 5.1100000000e-04 5.1099893000e-04 0.0000e+00 1.0000e+00
       50  1    1    2    0    0 +3.5211962014e-03 +2.9923771454e-02 +1.3149421785e+01 1.3149457253e+01 4.9935713700e-03 0.0000e+00 0.0000e+00
       11  1    1    2    0    0 -6.3806749533e-03 +3.2964199476e-03 +4.9722752384e-02 5.0241343751e-02 5.1099893000e-04 0.0000e+00 1.0000e+00
<vert_displacement>
182.71805531406400
</vert_displacement>
</event>
<event>
 4   1200 +8.6263000e+09 1.78026900e-02 7.81665300e-03            nan
       50 -1    0    0    0    0 +1.8809346531e-02 -9.3169853650e-04 +5.9442703920e+00 5.9443023215e+00 4.9935713700e-03 0.0000e+00 0.0000e+00
       11 -1    0    0    0    0 +5.0499962425e-19 -2.5014553806e-20 +1.5959375885e-16 5.1100000000e-04 5.1099893000e-04 0.0000e+00 1.0000e+00
       50  1    1    2    0    0 +1.5639242125e-02 +1.6058997190e-02 +5.6432342752e+00 5.6432810047e+00 4.9935713700e-03 0.0000e+00 0.0000e+00
       11  1    1    2    0    0 +3.1701044058e-03 -1.6990695727e-02 +3.0103611681e-01 3.0153231676e-01 5.1099893000e-04 0.0000e+00 1.0000e+00
<vert_displacement>
200.05906191772578
</vert_displacement>
</event>
<event>
 4   1200 +8.6263000e+09 1.71617500e-02 7.81665300e-03            nan
       50 -1    0    0    0    0 +9.3294313430e-03 -5.8923188856e-03 +3.2664796523e+00 3.2665021066e+00 4.9935713700e-03 0.0000e+00 0.0000e+00
       11 -1    0    0    0    0 +1.0701797891e-18 -6.7590835394e-19 +3.7469813291e-16 5.1100000000e-04 5.1099893000e-04 0.0000e+00 1.0000e+00
       50  1    1    2    0    0 -6.2974009057e-03 -1.2480784826e-02 +2.9767973053e+00 2.9768343185e+00 4.9935713700e-03 0.0000e+00 0.0000e+00
       11  1    1    2    0    0 +1.5626832249e-02 +6.5884659404e-03 +2.8968234700e-01 2.9017878809e-01 5.1099893000e-04 0.0000e+00 1.0000e+00
<vert_displacement>
326.47837710102323
</vert_displacement>
</event>
<event>
 4   1200 +8.6263000e+09 6.37676500e-03 7.81665300e-03            nan
       50 -1    0    0    0    0 +2.5298909467e-02 -3.8011968604e-02 +1.7510578945e+01 1.7510639190e+01 4.9935713700e-03 0.0000e+00 0.0000e+00
       11 -1    0    0    0    0 -2.0050262461e-20 +3.0125802385e-20 -1.3877740625e-17 5.1100000000e-04 5.1099893000e-04 0.0000e+00 1.0000e+00
       50  1    1    2    0    0 +2.7140558014e-02 -3.4478071977e-02 +1.7495181064e+01 1.7495236801e+01 4.9935713700e-03 0.0000e+00 0.0000e+00
       11  1    1    2    0    0 -1.8416485465e-03 -3.5338966263e-03 +1.5397881051e-02 1.5913389190e-02 5.1099893000e-04 0.0000e+00 1.0000e+00
<vert_displacement>
73.934016657624056
</vert_displacement>
</event>
<event>
 4   1200 +8.6263000e+09 5.93579300e-03 7.81665300e-03            nan
       50 -1    0    0    0    0 +2.8425562991e-02 +1.9069336035e-03 +8.3506052300e+00 8.3506553211e+00 4.9935713700e-03 0.0000e+00 0.0000e+00
       11 -1    0    0    0    0 +1.4644364535e-18 +9.8241962150e-20 +4.3020891835e-16 5.1100000000e-04 5.1099893000e-04 0.0000e+00 1.0000e+00
       50  1    1    2    0    0 +3.1070662023e-02 +3.6705236318e-03 +8.3405067173e+00 8.3405668929e+00 4.9935713700e-03 0.0000e+00 0.0000e+00
       11  1    1    2    0    0 -2.6450990321e-03 -1.7635900282e-03 +1.0098512701e-02 1.0599428162e-02 5.1099893000e-04 0.0000e+00 1.0000e+00
<vert_displacement>
63.308026269875832
</vert_displacement>
</event>
<event>
 4   1200 +8.6263000e+09 7.25465800e-03 7.81665300e-03            nan
       50 -1    0    0    0    0 -9.3344796156e-02 +3.7398403023e-02 +2.8042821770e+01 2.8043002508e+01 4.9935713700e-03 0.0000e+00 0.0000e+00
       11 -1    0    0    0    0 +4.5732089539e-18 -1.8322468805e-18 -1.3738921599e-15 5.1100000000e-04 5.1099893000e-04 0.0000e+00 1.0000e+00
       50  1    1    2    0    0 -9.5307929708e-02 +3.2516843291e-02 +2.8015696671e+01 2.8015878103e+01 4.9935713700e-03 0.0000e+00 0.0000e+00
       11  1    1    2    0    0 +1.9631335520e-03 +4.8815597323e-03 +2.7125098347e-02 2.7635404810e-02 5.1099893000e-04 0.0000e+00 1.0000e+00
<vert_displacement>
186.05991119632949
</vert_displacement>
</event>
<event>
 4   1200 +8.6263000e+09 7.53989200e-03 7.81665300e-03            nan
       50 -1    0    0    0    0 -2.1567751487e-02 -9.0847774786e-04 +1.0135490227e+01 1.0135514445e+01 4.9935713700e-03 0.0000e+00 0.0000e+00
       11 -1    0    0    0    0 -6.9398044265e-19 -2.9231873800e-20 +3.2612727380e-16 5.1100000000e-04 5.1099893000e-04 0.0000e+00 1.0000e+00
       50  1    1    2    0    0 -2.6046875267e-02 +2.4484294539e-03 +1.0104155082e+01 1.0104190185e+01 4.9935713700e-03 0.0000e+00 0.0000e+00
       11  1    1    2    0    0 +4.4791237800e-03 -3.3569072018e-03 +3.1335145085e-02 3.1835260533e-02 5.1099893000e-04 0.0000e+00 1.0000e+00
<vert_displacement>
400.00881082840783
</vert_displacement>
</event>
<event>
 4   1200 +8.6263000e+09 7.32576200e-02 7.81665300e-03            nan
       50 -1    0    0    0    0 +5.7682293722e-02 +1.6352081047e-02 +2.9914875126e+01 2.9914935624e+01 4.9935713700e-03 0.0000e+00 0.0000e+00
       11 -1    0    0    0    0 +2.6759296886e-18 +7.5858667054e-19 +1.3877759936e-15 5.1100000000e-04 5.1099893000e-04 0.0000e+00 1.0000e+00
       50  1    1    2    0    0 +4.7527385283e-02 -6.0369803126e-02 +2.3162840521e+01 2.3162968490e+01 4.9935713700e-03 0.0000e+00 0.0000e+00
       11  1    1    2    0    0 +1.0154908439e-02 +7.6721884173e-02 +6.7520346057e+00 6.7524781338e+00 5.1099893000e-04 0.0000e+00 1.0000e+00
<vert_displacement>
106.26934205157943
</vert_displacement>
</event>
<event>
 4   1200 +8.6263000e+09 9.04096700e-03 7.81665300e-03            nan
       50 -1    0    0    0    0 +9.4313468827e-03 +1.0186680684e-02 +7.1574924209e+00 7.1575076256e+00 4.9935713700e-03 0.0000e+00 0.0000e+00
       11 -1    0    0    0    0 +2.4686869201e-19 +2.6663980953e-19 +1.8734978301e-16 5.1100000000e-04 5.1099893000e-04 0.0000e+00 1.0000e+00
       50  1    1    2    0    0 +5.2749229511e-03 +3.7716876885e-03 +7.1014823768e+00 7.1014870932e+00 4.9935713700e-03 0.0000e+00 0.0000e+00
       11  1    1    2    0    0 +4.1564239316e-03 +6.4149929959e-03 +5.6010044134e-02 5.6531532429e-02 5.1099893000e-04 0.0000e+00 1.0000e+00
<vert_displacement>
401.33980899690465
</vert_displacement>
</event>
<event>
 4   1200 +8.6263000e+09 8.61871600e-03 7.81665300e-03            nan
       50 -1    0    0    0    0 +5.4412708685e-02 +3.0659909659e-02 +2.9891937314e+01 2.9892002979e+01 4.9935713700e-03 0.0000e+00 0.0000e+00
       11 -1    0    0    0    0 -3.7387574651e-18 -2.1066763425e-18 -2.0539081123e-15 5.1100000000e-04 5.1099893000e-04 0.0000e+00 1.0000e+00
       50  1    1    2    0    0 +4.9697117748e-02 +3.5895400582e-02 +2.9843577021e+01 2.9843640405e+01 4.9935713700e-03 0.0000e+00 0.0000e+00
       11  1    1    2    0    0 +4.7155909374e-03 -5.2354909231e-03 +4.8360292964e-02 4.8873573826e-02 5.1099893000e-04 0.0000e+00 1.0000e+00
<vert_displacement>
91.770610853309009
</vert_displacement>
</event>
<event>
 4   1200 +8.6263000e+09 1.08901400e-02 7.81665300e-03            nan
       50 -1    0    0    0    0 -3.3886515826e-02 +1.3955909345e-02 +1.7933135464e+01 1.7933173606e+01 4.9935713700e-03 0.0000e+00 0.0000e+00
       11 -1    0    0    0    0 +1.6783015602e-18 -6.9119600692e-19 -8.8817656509e-16 5.1100000000e-04 5.1099893000e-04 0.0000e+00 1.0000e+00
       50  1    1    2    0    0 -2.4934462892e-02 +1.7959305304e-02 +1.7841029278e+01 1.7841056440e+01 4.9935713700e-03 0.0000e+00 0.0000e+00
       11  1    1    2    0    0 -8.9520529335e-03 -4.0033959598e-03 +9.2106185994e-02 9.2628165528e-02 5.1099893000e-04 0.0000e+00 1.0000e+00
<vert_displacement>
128.20349581861433
</vert_displacement>
</event>
<event>
 4   1200 +8.6263000e+09 6.16029800e-03 7.81665300e-03            nan
       50 -1    0    0    0    0 -1.6954514118e-03 -2.8479905846e-03 +1.4597442571e+00 1.4597565610e+00 4.9935713700e-03 0.0000e+00 0.0000e+00
       11 -1    0    0    0    0 -1.1283029830e-19 -1.8953042532e-19 +9.7144264242e-17 5.1100000000e-04 5.1099893000e-04 0.0000e+00 1.0000e+00
       50  1    1    2    0    0 -3.6218491707e-03 +2.1760507086e-04 +1.4468950125e+00 1.4469081789e+00 4.9935713700e-03 0.0000e+00 0.0000e+00
       11  1    1    2    0    0 +1.9263977589e-03 -3.0655956555e-03 +1.2849244538e-02 1.3359382102e-02 5.1099893000e-04 0.0000e+00 1.0000e+00
<vert_displacement>
403.90223071982064
</vert_displacement>
</event>
<event>
 4   1200 +8.6263000e+09 2.48030500e-02 7.81665300e-03            nan
       50 -1    0    0    0    0 +2.5429071781e-02 +1.6949873285e-02 +9.2810414985e+00 9.2810931559e+00 4.9935713700e-03 0.0000e+00 0.0000e+00
       11 -1    0    0    0    0 +2.4905369055e-18 +1.6600796649e-18 +9.0899017363e-16 5.1100000000e-04 5.1099893000e-04 0.0000e+00 1.0000e+00
       50  1    1    2    0    0 +4.5226692197e-02 +4.4932611722e-03 +8.6620378904e+00 8.6621585643e+00 4.9935713700e-03 0.0000e+00 0.0000e+00
       11  1    1    2    0    0 -1.9797620416e-02 +1.2456612113e-02 +6.1900360804e-01 6.1944559151e-01 5.1099893000e-04 0.0000e+00 1.0000e+00
<vert_displacement>
439.95717255936995
</vert_displacement>
</event>
<event>
 4   1200 +8.6263000e+09 9.95966600e-03 7.81665300e-03            nan
       50 -1    0    0    0    0 +8.8018511302e-02 +4.3868042606e-02 +2.5668526008e+01 2.5668714889e+01 4.9935713700e-03 0.0000e+00 0.0000e+00
       11 -1    0    0    0    0 -2.3793599551e-18 -1.1858626367e-18 -6.9388429761e-16 5.1100000000e-04 5.1099893000e-04 0.0000e+00 1.0000e+00
       50  1    1    2    0    0 +8.0629244822e-02 +3.8917833093e-02 +2.5595690101e+01 2.5595847170e+01 4.9935713700e-03 0.0000e+00 0.0000e+00
       11  1    1    2    0    0 +7.3892664802e-03 +4.9502095125e-03 +7.2835907284e-02 7.3378718599e-02 5.1099893000e-04 0.0000e+00 1.0000e+00
<vert_displacement>
74.411498768420884
</vert_displacement>
</event>
<event>
 4   1200 +8.6263000e+09 1.31809800e-02 7.81665300e-03            nan
       50 -1    0    0    0    0 +1.8202924318e-02 +9.0214754200e-03 +6.8740209716e+00 6.8740528066e+00 4.9935713700e-03 0.0000e+00 0.0000e+00
       11 -1    0    0    0    0 -5.8798823910e-19 -2.9141039942e-19 -2.2204363518e-16 5.1100000000e-04 5.1099893000e-04 0.0000e+00 1.0000e+00
       50  1    1    2    0    0 +1.3120536401e-02 +2.0087697521e-02 +6.7251748931e+00 6.7252195461e+00 4.9935713700e-03 0.0000e+00 0.0000e+00
       11  1    1    2    0    0 +5.0823879174e-03 -1.1066222101e-02 +1.4884607848e-01 1.4934426047e-01 5.1099893000e-04 0.0000e+00 1.0000e+00
<vert_displacement>
58.314511048274589
</vert_displacement>
</event>
<event>
 4   1200 +8.6263000e+09 1.19929200e-02 7.81665300e-03            nan
       50 -1    0    0    0    0 -1.4907632973e-02 -1.0697575584e-02 +8.8821416480e+00 8.8821620041e+00 4.9935713700e-03 0.0000e+00 0.0000e+00
       11 -1    0    0    0    0 -1.1180250919e-18 -8.0228416857e-19 +6.6613239341e-16 5.1100000000e-04 5.1099893000e-04 0.0000e+00 1.0000e+00
       50  1    1    2    0    0 -1.8780185439e-02 -2.0671172566e-02 +8.7642115387e+00 8.7642574599e+00 4.9935713700e-03 0.0000e+00 0.0000e+00
       11  1    1    2    0    0 +3.8725524655e-03 +9.9735969821e-03 +1.1793010935e-01 1.1841554421e-01 5.1099893000e-04 0.0000e+00 1.0000e+00
<vert_displacement>
42.796349200312775
</vert_displacement>
</event>
<event>
 4   1200 +8.6263000e+09 1.96372400e-02 7.81665300e-03            nan
       50 -1    0    0    0    0 +3.9466168119e-02 +2.0533643953e-02 +1.6080431887e+01 1.6080494203e+01 4.9935713700e-03 0.0000e+00 0.0000e+00
       11 -1    0    0    0    0 +3.2016487718e-18 +1.6657689124e-18 +1.3045070615e-15 5.1100000000e-04 5.1099893000e-04 0.0000e+00 1.0000e+00
       50  1    1    2    0    0 +1.9607839450e-02 +2.0932220002e-02 +1.5719427454e+01 1.5719454413e+01 4.9935713700e-03 0.0000e+00 0.0000e+00
       11  1    1    2    0    0 +1.9858328669e-02 -3.9857604879e-04 +3.6100443266e-01 3.6155078979e-01 5.1099893000e-04 0.0000e+00 1.0000e+00
<vert_displacement>
193.79523057022413
</vert_displacement>
</event>
<event>
 4   1200 +8.6263000e+09 7.42135100e-03 7.81665300e-03            nan
       50 -1    0    0    0    0 -9.9821370107e-03 -1.8744740298e-02 +8.3369308481e+00 8.3369593924e+00 4.9935713700e-03 0.0000e+00 0.0000e+00
       11 -1    0    0    0    0 +1.7447188779e-19 +3.2762826461e-19 -1.4571629921e-16 5.1100000000e-04 5.1099893000e-04 0.0000e+00 1.0000e+00
       50  1    1    2    0    0 -5.3414742776e-03 -1.5689466765e-02 +8.3073441036e+00 8.3073621374e+00 4.9935713700e-03 0.0000e+00 0.0000e+00
       11  1    1    2    0    0 -4.6406627331e-03 -3.0552735336e-03 +2.9586744514e-02 3.0108254978e-02 5.1099893000e-04 0.0000e+00 1.0000e+00
<vert_displacement>
380.93347759497777
</vert_displacement>
</event>
<event>
 4   1200 +8.6263000e+09 8.89457400e-03 7.81665300e-03            nan
       50 -1    0    0    0    0 +1.5571605948e-02 -2.4444646813e-02 +1.2135231084e+01 1.2135266722e+01 4.9935713700e-03 0.0000e+00 0.0000e+00
       11 -1    0    0    0    0 -1.8965048873e-18 +2.9771747566e-18 -1.4779801862e-15 5.1100000000e-04 5.1099893000e-04 0.0000e+00 1.0000e+00
       50  1    1    2    0    0 +8.1630662899e-03 -2.4884098164e-02 +1.2081991762e+01 1.2082021177e+01 4.9935713700e-03 0.0000e+00 0.0000e+00
       11  1    1    2    0    0 +7.4085396582e-03 +4.3945135121e-04 +5.3239322107e-02 5.3756544864e-02 5.1099893000e-04 0.0000e+00 1.0000e+00
<vert_displacement>
246.49937718654920
</vert_displacement>
</event>
<event>
 4   1200 +8.6263000e+09 1.39861800e-02 7.81665300e-03            nan
       50 -1    0    0    0    0 +1.2640103827e-02 -8.0278693314e-03 +2.9652212510e+01 2.9652216711e+01 4.9935713700e-03 0.0000e+00 0.0000e+00
       11 -1    0    0    0    0 -6.8623318201e-19 +4.3583426143e-19 -1.6098231804e-15 5.1100000000e-04 5.1099893000e-04 0.0000e+00 1.0000e+00
       50  1    1    2    0    0 +3.6152109323e-03 +1.5315914905e-03 +2.9484260454e+01 2.9484261138e+01 4.9935713700e-03 0.0000e+00 0.0000e+00
       11  1    1    2    0    0 +9.0248928950e-03 -9.5594608219e-03 +1.6795205597e-01 1.6846657297e-01 5.1099893000e-04 0.0000e+00 1.0000e+00
<vert_displacement>
454.43767143041720
</vert_displacement>
</event>
<event>
 4   1200 +8.6263000e+09 1.37498200e-02 7.81665300e-03            nan
       50 -1    0    0    0    0 +7.4275305994e-03 +5.9938964015e-03 +7.5515390106e+00 7.5515466932e+00 4.9935713700e-03 0.0000e+00 0.0000e+00
       11 -1    0    0    0    0 -3.0029738900e-19 -2.4233510925e-19 -3.0531108791e-16 5.1100000000e-04 5.1099893000e-04 0.0000e+00 1.0000e+00
       50  1    1    2    0    0 +1.7808231288e-02 +1.3142585794e-02 +7.3873422915e+00 7.3873771345e+00 4.9935713700e-03 0.0000e+00 0.0000e+00
       11  1    1    2    0    0 -1.0380700688e-02 -7.1486893928e-03 +1.6419671915e-01 1.6468055868e-01 5.1099893000e-04 0.0000e+00 1.0000e+00
<vert_displacement>
292.35133037458866
</vert_displacement>
</event>
<event>
 4   1200 +8.6263000e+09 1.09905300e-02 7.81665300e-03            nan
       50 -1    0    0    0    0 +7.4461856137e-03 +9.3987296283e-03 +4.5176552252e+00 4.5176738983e+00 4.9935713700e-03 0.0000e+00 0.0000e+00
       11 -1    0    0    0    0 -5.0322495300e-19 -6.3518095315e-19 -3.0531025633e-16 5.1100000000e-04 5.1099893000e-04 0.0000e+00 1.0000e+00
       50  1    1    2    0    0 +1.8921431593e-03 +1.7368687181e-02 +4.4217998013e+00 4.4218371374e+00 4.9935713700e-03 0.0000e+00 0.0000e+00
       11  1    1    2    0    0 +5.5540424544e-03 -7.9699575525e-03 +9.5855423913e-02 9.6347760869e-02 5.1099893000e-04 0.0000e+00 1.0000e+00
<vert_displacement>
423.11555176108607
</vert_displacement>
</event>
<event>
 4   1200 +8.6263000e+09 1.42722500e-02 7.81665300e-03            nan
       50 -1    0    0    0    0 -1.0417353403e-02 -7.6738645142e-04 +3.1075118283e+00 3.1075333962e+00 4.9935713700e-03 0.0000e+00 0.0000e+00
       11 -1    0    0    0    0 +1.8608972232e-19 +1.3708158506e-20 -5.5510837624e-17 5.1100000000e-04 5.1099893000e-04 0.0000e+00 1.0000e+00
       50  1    1    2    0    0 -1.2292740138e-02 +1.2413032654e-02 +2.9213239815e+00 2.9213804845e+00 4.9935713700e-03 0.0000e+00 0.0000e+00
       11  1    1    2    0    0 +1.8753867350e-03 -1.3180419106e-02 +1.8618784675e-01 1.8666391167e-01 5.1099893000e-04 0.0000e+00 1.0000e+00
<vert_displacement>
333.81701349222215
</vert_displacement>
</event>
<event>
 4   1200 +8.6263000e+09 2.16953700e-02 7.81665300e-03            nan
       50 -1    0    0    0    0 +1.6397778435e-02 -1.2681238232e-02 +6.9581746316e+00 6.9582073007e+00 4.9935713700e-03 0.0000e+00 0.0000e+00
       11 -1    0    0    0    0 -1.3408860177e-18 +1.0369755330e-18 -5.6898677520e-16 5.1100000000e-04 5.1099893000e-04 0.0000e+00 -1.0000e+00
       50  1    1    2    0    0 +3.9560290860e-04 +3.1292401018e-03 +6.4904978288e+00 6.4905005162e+00 4.9935713700e-03 0.0000e+00 0.0000e+00
       11  1    1    2    0    0 +1.6002175527e-02 -1.5810478334e-02 +4.6767680276e-01 4.6821778459e-01 5.1099893000e-04 0.0000e+00 -1.0000e+00
<vert_displacement>
315.43001435127536
</vert_displacement>
</event>
<event>
 4   1200 +8.6263000e+09 1.75460500e-02 7.81665300e-03            nan
       50 -1    0    0    0    0 +3.4545460883e-02 +3.7229863925e-03 +1.3815960256e+01 1.3816004849e+01 4.9935713700e-03 0.0000e+00 0.0000e+00
       11 -1    0    0    0    0 +2.9321453451e-18 +3.1599917736e-19 +1.1726693614e-15 5.1100000000e-04 5.1099893000e-04 0.0000e+00 1.0000e+00
       50  1    1    2    0    0 +1.7054183377e-02 +2.5492938677e-03 +1.3533363380e+01 1.3533375286e+01 4.9935713700e-03 0.0000e+00 0.0000e+00
       11  1    1    2    0    0 +1.7491277505e-02 +1.1736925249e-03 +2.8259687669e-01 2.8314056258e-01 5.1099893000e-04 0.0000e+00 1.0000e+00
<vert_displacement>
106.91871032268992
</vert_displacement>
</event>
<event>
 4   1200 +8.6263000e+09 1.87654300e-02 7.81665300e-03            nan
       50 -1    0    0    0    0 -5.9414107656e-03 -1.2077364547e-02 +9.7940722710e+00 9.7940827926e+00 4.9935713700e-03 0.0000e+00 0.0000e+00
       11 -1    0    0    0    0 +6.3982278140e-19 +1.3005956466e-18 -1.0547108774e-15 5.1100000000e-04 5.1099893000e-04 0.0000e+00 1.0000e+00
       50  1    1    2    0    0 -2.3355638703e-02 -1.5780522425e-02 +9.4626355007e+00 9.4626787997e+00 4.9935713700e-03 0.0000e+00 0.0000e+00
       11  1    1    2    0    0 +1.7414227937e-02 +3.7031578786e-03 +3.3143677027e-01 3.3191499291e-01 5.1099893000e-04 0.0000e+00 1.0000e+00
<vert_displacement>
58.633893217209071
</vert_displacement>
</event>
<event>
 4   1200 +8.6263000e+09 3.90366700e-02 7.81665300e-03            nan
       50 -1    0    0    0    0 +1.3074813134e-02 -9.6101858781e-03 +1.0457372414e+01 1.0457386196e+01 4.9935713700e-03 0.0000e+00 0.0000e+00
       11 -1    0    0    0    0 -6.0729636316e-19 +4.4637203401e-19 -4.8572198852e-16 5.1100000000e-04 5.1099893000e-04 0.0000e+00 1.0000e+00
       50  1    1    2    0    0 +8.6514252008e-03 +3.0664740400e-02 +8.6919346084e+00 8.6919944401e+00 4.9935713700e-03 0.0000e+00 0.0000e+00
       11  1    1    2    0    0 +4.4233879335e-03 -4.0274926278e-02 +1.7654378054e+00 1.7659027555e+00 5.1099893000e-04 0.0000e+00 1.0000e+00
<vert_displacement>
497.16717253410440
</vert_displacement>
</event>
<event>
 4   1200 +8.6263000e+09 8.50581200e-03 7.81665300e-03            nan
       50 -1    0    0    0    0 +7.7960532295e-03 -1.3483649657e-02 +2.5758476965e+01 2.5758482157e+01 4.9935713700e-03 0.0000e+00 0.0000e+00
       11 -1    0    0    0    0 -6.4683796078e-19 +1.1187374164e-18 -2.1371789317e-15 5.1100000000e-04 5.1099893000e-04 0.0000e+00 1.0000e+00
       50  1    1    2    0    0 +8.5376352953e-03 -6.6151937108e-03 +2.5712003014e+01 2.5712005767e+01 4.9935713700e-03 0.0000e+00 0.0000e+00
       11  1    1    2    0    0 -7.4158206578e-04 -6.8684559465e-03 +4.6473950756e-02 4.6987390328e-02 5.1099893000e-04 0.0000e+00 1.0000e+00
<vert_displacement>
75.177012715925045
</vert_displacement>
</event>
<event>
 4   1200 +8.6263000e+09 6.35900600e-03 7.81665300e-03            nan
       50 -1    0    0    0    0 -1.2179953273e-02 -1.2785603283e-03 +4.1030622417e+00 4.1030835577e+00 4.9935713700e-03 0.0000e+00 0.0000e+00
       11 -1    0    0    0    0 +1.0299018399e-19 +1.0811138639e-20 -3.4694314972e-17 5.1100000000e-04 5.1099893000e-04 0.0000e+00 1.0000e+00
       50  1    1    2    0    0 -9.5205856908e-03 -4.2178388925e-03 +4.0878429054e+00 4.0878592181e+00 4.9935713700e-03 0.0000e+00 0.0000e+00
       11  1    1    2    0    0 -2.6593675823e-03 +2.9392785642e-03 +1.5219336340e-02 1.5735339620e-02 5.1099893000e-04 0.0000e+00 1.0000e+00
<vert_displacement>
168.92858593479170
</vert_displacement>
</event>
<event>
 4   1200 +8.6263000e+09 1.57323800e-02 7.81665300e-03            nan
       50 -1    0    0    0    0 -1.9026934894e-02 -4.7902236872e-04 +5.5595288093e+00 5.5595636313e+00 4.9935713700e-03 0.0000e+00 0.0000e+00
       11 -1    0    0    0    0 +1.3061144634e-18 +3.2882755292e-20 -3.8163692828e-16 5.1100000000e-04 5.1099893000e-04 0.0000e+00 1.0000e+00
       50  1    1    2    0    0 -2.2438731488e-02 +1.3859190570e-02 +5.3323973300e+00 5.3324648892e+00 4.9935713700e-03 0.0000e+00 0.0000e+00
       11  1    1    2    0    0 +3.4117965937e-03 -1.4338212939e-02 +2.2713147923e-01 2.2760974207e-01 5.1099893000e-04 0.0000e+00 1.0000e+00
<vert_displacement>
49.196434723308556
</vert_displacement>
</event>
<event>
 4   1200 +8.6263000e+09 2.68711000e-02 7.81665300e-03            nan
       50 -1    0    0    0    0 -4.9237904741e-03 +9.9369792695e-03 +1.9505402431e+01 1.9505406223e+01 4.9935713700e-03 0.0000e+00 0.0000e+00
       11 -1    0    0    0    0 -2.8375912761e-19 +5.7267030013e-19 +1.1241006307e-15 5.1100000000e-04 5.1099893000e-04 0.0000e+00 1.0000e+00
       50  1    1    2    0    0 -1.9939890470e-02 -1.2016190455e-02 +1.8797558575e+01 1.8797573655e+01 4.9935713700e-03 0.0000e+00 0.0000e+00
       11  1    1    2    0    0 +1.5016099996e-02 +2.1953169725e-02 +7.0784385646e-01 7.0834356859e-01 5.1099893000e-04 0.0000e+00 1.0000e+00
<vert_displacement>
406.88276906848864
</vert_displacement>
</event>
<event>
 4   1200 +8.6263000e+09 8.52009400e-03 7.81665300e-03            nan
       50 -1    0    0    0    0 +9.7174980442e-03 +3.7545637217e-03 +3.9172566511e+00 3.9172736862e+00 4.9935713700e-03 0.0000e+00 0.0000e+00
       11 -1    0    0    0    0 +7.4016680209e-19 +2.8597931386e-19 +2.9837138276e-16 5.1100000000e-04 5.1099893000e-04 0.0000e+00 1.0000e+00
       50  1    1    2    0    0 +1.4417399507e-02 -1.2356404919e-03 +3.8700406670e+00 3.8700709410e+00 4.9935713700e-03 0.0000e+00 0.0000e+00
       11  1    1    2    0    0 -4.6999014632e-03 +4.9902042136e-03 +4.7215984098e-02 4.7713745253e-02 5.1099893000e-04 0.0000e+00 1.0000e+00
<vert_displacement>
368.98755379190970
</vert_displacement>
</event>
<event>
 4   1200 +8.6263000e+09 1.56160900e-02 7.81665300e-03            nan
       50 -1    0    0    0    0 -4.5284331801e-03 +6.2388946649e-04 +9.7836856326e+00 9.7836879748e+00 4.9935713700e-03 0.0000e+00 0.0000e+00
       11 -1    0    0    0    0 +1.9912572200e-19 -2.7433868519e-20 -4.3021137508e-16 5.1100000000e-04 5.1099893000e-04 0.0000e+00 1.0000e+00
       50  1    1    2    0    0 -4.6529247479e-03 +1.5404355169e-02 +9.5645388094e+00 9.5645536497e+00 4.9935713700e-03 0.0000e+00 0.0000e+00
       11  1    1    2    0    0 +1.2449156781e-04 -1.4780465702e-02 +2.1914682314e-01 2.1964532518e-01 5.1099893000e-04 0.0000e+00 1.0000e+00
<vert_displacement>
72.588675196634313
</vert_displacement>
</event>
<event>
 4   1200 +8.6263000e+09 2.14668600e-02 7.81665300e-03            nan
       50 -1    0    0    0    0 +6.0231122925e-03 -5.0169833787e-03 +6.7835436080e+00 6.7835499751e+00 4.9935713700e-03 0.0000e+00 0.0000e+00
       11 -1    0    0    0    0 -1.2322087593e-20 +1.0263748315e-20 -1.3877778542e-17 5.1100000000e-04 5.1099893000e-04 0.0000e+00 1.0000e+00
       50  1    1    2    0    0 +2.3659023428e-02 -1.5184396535e-02 +6.3260152732e+00 6.3260797093e+00 4.9935713700e-03 0.0000e+00 0.0000e+00
       11  1    1    2    0    0 -1.7635911136e-02 +1.0167413156e-02 +4.5752833472e-01 4.5798126582e-01 5.1099893000e-04 0.0000e+00 1.0000e+00
<vert_displacement>
220.27647301383846
</vert_displacement>
</event>
<event>
 4   1200 +8.6263000e+09 8.82926300e-03 7.81665300e-03            nan
       50 -1    0    0    0    0 +1.4385355299e-02 +4.7964696646e-02 +1.8583644486e+01 1.8583712623e+01 4.9935713700e-03 0.0000e+00 0.0000e+00
       11 -1    0    0    0    0 +1.6436138840e-18 +5.4802568108e-18 +2.1232938261e-15 5.1100000000e-04 5.1099893000e-04 0.0000e+00 1.0000e+00
       50  1    1    2    0    0 +1.3149270798e-02 +5.5013025278e-02 +1.8531600991e+01 1.8531687984e+01 4.9935713700e-03 0.0000e+00 0.0000e+00
       11  1    1    2    0    0 +1.2360845009e-03 -7.0483286313e-03 +5.2043494875e-02 5.2535638571e-02 5.1099893000e-04 0.0000e+00 1.0000e+00
<vert_displacement>
295.46922424351573
</vert_displacement>
</event>
<event>
 4   1200 +8.6263000e+09 1.14117200e-02 7.81665300e-03            nan
       50 -1    0    0    0    0 +4.8693681241e-02 +4.4910352383e-02 +2.2019656252e+01 2.2019756456e+01 4.9935713700e-03 0.0000e+00 0.0000e+00
       11 -1    0    0    0    0 +4.0509257440e-18 +3.7361829709e-18 +1.8318597015e-15 5.1100000000e-04 5.1099893000e-04 0.0000e+00 1.0000e+00
       50  1    1    2    0    0 +5.7502270951e-02 +4.9558680479e-02 +2.1916112301e+01 2.1916244338e+01 4.9935713700e-03 0.0000e+00 0.0000e+00
       11  1    1    2    0    0 -8.8085897093e-03 -4.6483280959e-03 +1.0354395081e-01 1.0402311799e-01 5.1099893000e-04 0.0000e+00 1.0000e+00
<vert_displacement>
57.729635841198622
</vert_displacement>
</event>
<event>
 4   1200 +8.6263000e+09 1.10935200e-02 7.81665300e-03            nan
       50 -1    0    0    0    0 -5.6382809325e-03 +7.4558019707e-03 +2.4322384995e+01 2.4322387304e+01 4.9935713700e-03 0.0000e+00 0.0000e+00
       11 -1    0    0    0    0 -8.2035332710e-19 +1.0847973037e-18 +3.5388356296e-15 5.1100000000e-04 5.1099893000e-04 0.0000e+00 1.0000e+00
       50  1    1    2    0    0 -2.6851790416e-03 +1.6888864725e-02 +2.4225980295e+01 2.4225986845e+01 4.9935713700e-03 0.0000e+00 0.0000e+00
       11  1    1    2    0    0 -2.9531018910e-03 -9.4330627547e-03 +9.6404700659e-02 9.6911459140e-02 5.1099893000e-04 0.0000e+00 1.0000e+00
<vert_displacement>
374.06757256298948
</vert_displacement>
</event>
<event>
 4   1200 +8.6263000e+09 2.22873500e-02 7.81665300e-03            nan
       50 -1    0    0    0    0 +5.6808805188e-02 +4.8183945148e-02 +2.6367997697e+01 2.6368103391e+01 4.9935713700e-03 0.0000e+00 0.0000e+00
       11 -1    0    0    0    0 -1.4949512039e-18 -1.2679838375e-18 -6.9388662146e-16 5.1100000000e-04 5.1099893000e-04 0.0000e+00 1.0000e+00
       50  1    1    2    0    0 +4.0528241809e-02 +3.1875846646e-02 +2.5898031313e+01 2.5898083122e+01 4.9935713700e-03 0.0000e+00 0.0000e+00
       11  1    1    2    0    0 +1.6280563379e-02 +1.6308098501e-02 +4.6996638466e-01 4.7053126851e-01 5.1099893000e-04 0.0000e+00 1.0000e+00
<vert_displacement>
85.824087012727460
</vert_displacement>
</event>
<event>
 4   1200 +8.6263000e+09 3.23441900e-02 7.81665300e-03            nan
       50 -1    0    0    0    0 +4.7928102325e-02 +1.9428869970e-02 +1.8697461955e+01 1.8697534144e+01 4.9935713700e-03 0.0000e+00 0.0000e+00
       11 -1    0    0    0    0 -2.9525975123e-18 -1.1969101708e-18 -1.1518519819e-15 5.1100000000e-04 5.1099893000e-04 0.0000e+00 1.0000e+00
       50  1    1    2    0    0 +1.6802200477e-02 +3.6976102265e-03 +1.7638201516e+01 1.7638210614e+01 4.9935713700e-03 0.0000e+00 0.0000e+00
       11  1    1    2    0    0 +3.1125901848e-02 +1.5731259743e-02 +1.0592604385e+00 1.0598345305e+00 5.1099893000e-04 0.0000e+00 1.0000e+00
<vert_displacement>
16.852366941074234
</vert_displacement>
</event>
<event>
 4   1200 +8.6263000e+09 4.30163000e-02 7.81665300e-03            nan
       50 -1    0    0    0    0 -1.2007329400e-02 -3.1380087240e-03 +7.5111664148e+00 7.5111783276e+00 4.9935713700e-03 0.0000e+00 0.0000e+00
       11 -1    0    0    0    0 -6.9882630551e-19 -1.8263203834e-19 +4.3714971923e-16 5.1100000000e-04 5.1099893000e-04 0.0000e+00 1.0000e+00
       50  1    1    2    0    0 +1.0710436228e-02 +3.6834775117e-02 +4.5676842483e+00 4.5678480537e+00 4.9935713700e-03 0.0000e+00 0.0000e+00
       11  1    1    2    0    0 -2.2717765628e-02 -3.9972783841e-02 +2.9434821665e+00 2.9438412739e+00 5.1099893000e-04 0.0000e+00 1.0000e+00
<vert_displacement>
211.65605468732812
</vert_displacement>
</event>
<event>
 4   1200 +8.6263000e+09 2.26718900e-02 7.81665300e-03            nan
       50 -1    0    0    0    0 +3.3331793121e-03 -1.2139792589e-02 +5.5312734354e+00 5.5312900157e+00 4.9935713700e-03 0.0000e+00 0.0000e+00
       11 -1    0    0    0    0 +3.1778710023e-19 -1.1574143252e-18 +5.2735457083e-16 5.1100000000e-04 5.1099893000e-04 0.0000e+00 1.0000e+00
       50  1    1    2    0    0 +1.9922637073e-02 +3.2764479128e-03 +5.0017904975e+00 5.0018337401e+00 4.9935713700e-03 0.0000e+00 0.0000e+00
       11  1    1    2    0    0 -1.6589457761e-02 -1.5416240501e-02 +5.2948293790e-01 5.2996727562e-01 5.1099893000e-04 0.0000e+00 1.0000e+00
<vert_displacement>
384.80268246165281
</vert_displacement>
</event>
<event>
 4   1200 +8.6263000e+09 1.07744400e-02 7.81665300e-03            nan
       50 -1    0    0    0    0 -1.0468178786e-02 +2.9660401423e-03 +5.7991477437e+00 5.7991601004e+00 4.9935713700e-03 0.0000e+00 0.0000e+00
       11 -1    0    0    0    0 -6.2627697490e-20 +1.7744850234e-20 +3.4694408456e-17 5.1100000000e-04 5.1099893000e-04 0.0000e+00 1.0000e+00
       50  1    1    2    0    0 -8.5909823204e-03 +1.2312045096e-02 +5.7085257301e+00 5.7085476558e+00 4.9935713700e-03 0.0000e+00 0.0000e+00
       11  1    1    2    0    0 -1.8771964656e-03 -9.3460049537e-03 +9.0622013651e-02 9.1123444586e-02 5.1099893000e-04 0.0000e+00 1.0000e+00
<vert_displacement>
435.92365813916467
</vert_displacement>
</event>
<event>
 4   1200 +8.6263000e+09 1.59846000e-02 7.81665300e-03            nan
       50 -1    0    0    0    0 -2.5476529072e-02 +7.5150945491e-03 +8.4375835207e+00 8.4376268070e+00 4.9935713700e-03 0.0000e+00 0.0000e+00
       11 -1    0    0    0    0 +1.0894658295e-18 -3.2137182790e-19 -3.6082069512e-16 5.1100000000e-04 5.1099893000e-04 0.0000e+00 1.0000e+00
       50  1    1    2    0    0 -3.6783891251e-02 -1.9856785630e-03 +8.2055362538e+00 8.2056204608e+00 4.9935713700e-03 0.0000e+00 0.0000e+00
       11  1    1    2    0    0 +1.1307362179e-02 +9.5007731121e-03 +2.3204726684e-01 2.3251734623e-01 5.1099893000e-04 0.0000e+00 1.0000e+00
<vert_displacement>
414.30776966002924
</vert_displacement>
</event>
<event>
 4   1200 +8.6263000e+09 8.57423200e-03 7.81665300e-03            nan
       50 -1    0    0    0    0 -6.4960224443e-02 +4.9310157527e-02 +3.3687860367e+01 3.3687959457e+01 4.9935713700e-03 0.0000e+00 0.0000e+00
       11 -1    0    0    0    0 +7.8408054663e-18 -5.9518167618e-18 -4.0661799121e-15 5.1100000000e-04 5.1099893000e-04 0.0000e+00 1.0000e+00
       50  1    1    2    0    0 -5.8477566229e-02 +4.6458699544e-02 +3.3640272952e+01 3.3640356230e+01 4.9935713700e-03 0.0000e+00 0.0000e+00
       11  1    1    2    0    0 -6.4826582141e-03 +2.8514579830e-03 +4.7587414295e-02 4.8114226475e-02 5.1099893000e-04 0.0000e+00 1.0000e+00
<vert_displacement>
411.67385814328247
</vert_displacement>
</event>
<event>
 4   1200 +8.6263000e+09 1.42794900e-02 7.81665300e-03            nan
       50 -1    0    0    0    0 -7.0955196455e-02 -2.0184406449e-02 +2.2600114930e+01 2.2600235880e+01 4.9935713700e-03 0.0000e+00 0.0000e+00
       11 -1    0    0    0    0 -1.1241161681e-17 -3.1977386810e-18 +3.5804501802e-15 5.1100000000e-04 5.1099893000e-04 0.0000e+00 1.0000e+00
       50  1    1    2    0    0 -8.1717459293e-02 -1.2891910242e-02 +2.2423587479e+01 2.2423740640e+01 4.9935713700e-03 0.0000e+00 0.0000e+00
       11  1    1    2    0    0 +1.0762262839e-02 -7.2924962062e-03 +1.7652745059e-01 1.7700623925e-01 5.1099893000e-04 0.0000e+00 1.0000e+00
<vert_displacement>
451.96183891118841
</vert_displacement>
</event>
<event>
 4   1200 +8.6263000e+09 1.23534700e-02 7.81665300e-03            nan
       50 -1    0    0    0    0 +3.8513884920e-03 +2.4789911740e-03 +1.3853038027e+00 1.3853203745e+00 4.9935713700e-03 0.0000e+00 0.0000e+00
       11 -1    0    0    0    0 +3.8582482784e-19 +2.4834065556e-19 +1.3877711955e-16 5.1100000000e-04 5.1099893000e-04 0.0000e+00 1.0000e+00
       50  1    1    2    0    0 +1.3764557175e-02 +6.8750517297e-03 +1.2460652080e+00 1.2461702001e+00 4.9935713700e-03 0.0000e+00 0.0000e+00
       11  1    1    2    0    0 -9.9131686825e-03 -4.3960605557e-03 +1.3923859471e-01 1.3966117441e-01 5.1099893000e-04 0.0000e+00 1.0000e+00
<vert_displacement>
341.50274491528506
</vert_displacement>
</event>
<event>
 4   1200 +8.6263000e+09 1.68420500e-02 7.81665300e-03            nan
       50 -1    0    0    0    0 -3.5135338244e-02 -2.7508322748e-02 +1.2563453515e+01 1.2563533753e+01 4.9935713700e-03 0.0000e+00 0.0000e+00
       11 -1    0    0    0    0 +2.2898372537e-18 +1.7927700532e-18 -8.1878431608e-16 5.1100000000e-04 5.1099893000e-04 0.0000e+00 1.0000e+00
       50  1    1    2    0    0 -3.7425750158e-02 -4.2742257936e-02 +1.2304923760e+01 1.2305055922e+01 4.9935713700e-03 0.0000e+00 0.0000e+00
       11  1    1    2    0    0 +2.2904119139e-03 +1.5233935188e-02 +2.5852975565e-01 2.5898883073e-01 5.1099893000e-04 0.0000e+00 1.0000e+00
<vert_displacement>
490.62466142602500
</vert_displacement>
</event>
<event>
 4   1200 +8.6263000e+09 1.49035100e-02 7.81665300e-03            nan
       50 -1    0    0    0    0 -1.1302166499e-02 +1.9715981308e-02 +1.0198444918e+01 1.0198471461e+01 4.9935713700e-03 0.0000e+00 0.0000e+00
       11 -1    0    0    0    0 +1.3457207962e-18 -2.3475327553e-18 -1.2143034183e-15 5.1100000000e-04 5.1099893000e-04 0.0000e+00 1.0000e+00
       50  1    1    2    0    0 -1.8065371092e-03 +2.9876263356e-02 +1.0001686633e+01 1.0001732665e+01 4.9935713700e-03 0.0000e+00 0.0000e+00
       11  1    1    2    0    0 -9.4956293902e-03 -1.0160282048e-02 +1.9675828441e-01 1.9724979572e-01 5.1099893000e-04 0.0000e+00 1.0000e+00
<vert_displacement>
184.59224337309351
</vert_displacement>
</event>
<event>
 4   1200 +8.6263000e+09 1.84252900e-02 7.81665300e-03            nan
       50 -1    0    0    0    0 -5.7607634513e-02 -4.3712248984e-02 +1.8032653722e+01 1.8032799411e+01 4.9935713700e-03 0.0000e+00 0.0000e+00
       11 -1    0    0    0    0 -3.8570600720e-18 -2.9267087885e-18 +1.2073578311e-15 5.1100000000e-04 5.1099893000e-04 0.0000e+00 1.0000e+00
       50  1    1    2    0    0 -5.3514854099e-02 -6.0416999584e-02 +1.7719382261e+01 1.7719566775e+01 4.9935713700e-03 0.0000e+00 0.0000e+00
       11  1    1    2    0    0 -4.0927804140e-03 +1.6704750599e-02 +3.1327146058e-01 3.1374363528e-01 5.1099893000e-04 0.0000e+00 1.0000e+00
<vert_displacement>
23.604845439350029
</vert_displacement>
</event>
<event>
 4   1200 +8.6263000e+09 9.24261200e-03 7.81665300e-03            nan
       50 -1    0    0    0    0 -1.6598787488e-02 -1.2102776610e-02 +9.2422999329e+00 9.2423241115e+00 4.9935713700e-03 0.0000e+00 0.0000e+00
       11 -1    0    0    0    0 +8.7233544845e-20 +6.3605134226e-20 -4.8572137348e-17 5.1100000000e-04 5.1099893000e-04 0.0000e+00 1.0000e+00
       50  1    1    2    0    0 -1.0553310495e-02 -1.7047167497e-02 +9.1827278611e+00 9.1827511066e+00 4.9935713700e-03 0.0000e+00 0.0000e+00
       11  1    1    2    0    0 -6.0454769930e-03 +4.9443908874e-03 +5.9572071724e-02 6.0084004883e-02 5.1099893000e-04 0.0000e+00 1.0000e+00
<vert_displacement>
64.917061643177860
</vert_displacement>
</event>
<event>
 4   1200 +8.6263000e+09 1.70204100e-02 7.81665300e-03            nan
       50 -1    0    0    0    0 -5.5767246845e-03 -1.0461128042e-02 +7.9496580245e+00 7.9496684319e+00 4.9935713700e-03 0.0000e+00 0.0000e+00
       11 -1    0    0    0    0 +2.6285381330e-19 +4.9307569457e-19 -3.7469985419e-16 5.1100000000e-04 5.1099893000e-04 0.0000e+00 1.0000e+00
       50  1    1    2    0    0 +3.2133518636e-03 +3.7034668513e-03 +7.6815343856e+00 7.6815375736e+00 4.9935713700e-03 0.0000e+00 0.0000e+00
       11  1    1    2    0    0 -8.7900765481e-03 -1.4164594893e-02 +2.6812363887e-01 2.6864185831e-01 5.1099893000e-04 0.0000e+00 1.0000e+00
<vert_displacement>
438.30994822547882
</vert_displacement>
</event>
<event>
 4   1200 +8.6263000e+09 9.71060700e-03 7.81665300e-03            nan
       50 -1    0    0    0    0 +4.8126395067e-02 +4.1811601708e-02 +1.9284211602e+01 1.9284317629e+01 4.9935713700e-03 0.0000e+00 0.0000e+00
       11 -1    0    0    0    0 +5.2989612540e-18 +4.6036703375e-18 +2.1232899317e-15 5.1100000000e-04 5.1099893000e-04 0.0000e+00 1.0000e+00
       50  1    1    2    0    0 +4.3693729221e-02 +3.4509284392e-02 +1.9216128406e+01 1.9216209716e+01 4.9935713700e-03 0.0000e+00 0.0000e+00
       11  1    1    2    0    0 +4.4326658460e-03 +7.3023173161e-03 +6.8083196603e-02 6.8618912438e-02 5.1099893000e-04 0.0000e+00 1.0000e+00
<vert_displacement>
255.37424759373428
</vert_displacement>
</event>
<event>
 4   1200 +8.6263000e+09 2.55138000e-02 7.81665300e-03            nan
       50 -1    0    0    0    0 -1.2588750271e-03 +2.5105337894e-03 +7.4670724684e+00 7.4670746663e+00 4.9935713700e-03 0.0000e+00 0.0000e+00
       11 -1    0    0    0    0 +4.3283681499e-20 -8.6319247414e-20 -2.5673905629e-16 5.1100000000e-04 5.1099893000e-04 0.0000e+00 1.0000e+00
       50  1    1    2    0    0 -4.7600606945e-03 +2.7041949194e-02 +6.7935295240e+00 6.7935868475e+00 4.9935713700e-03 0.0000e+00 0.0000e+00
       11  1    1    2    0    0 +3.5011856673e-03 -2.4531415405e-02 +6.7354294444e-01 6.7399881882e-01 5.1099893000e-04 0.0000e+00 1.0000e+00
<vert_displacement>
398.89055331663053
</vert_displacement>
</event>
<event>
 4   1200 +8.6263000e+09 9.03905400e-03 7.81665300e-03            nan
       50 -1    0    0    0    0 +6.7520652388e-03 -6.6864534069e-03 +3.0081330904e+00 3.0081522442e+00 4.9935713700e-03 0.0000e+00 0.0000e+00
       11 -1    0    0    0    0 -3.1149971860e-20 +3.0847278292e-20 -1.3877718565e-17 5.1100000000e-04 5.1099893000e-04 0.0000e+00 1.0000e+00
       50  1    1    2    0    0 +1.3958912995e-02 -8.2872332188e-03 +2.9514821659e+00 2.9515310334e+00 4.9935713700e-03 0.0000e+00 0.0000e+00
       11  1    1    2    0    0 -7.2068477564e-03 +1.6007798119e-03 +5.6650924458e-02 5.7132210813e-02 5.1099893000e-04 0.0000e+00 1.0000e+00
<vert_displacement>
354.72018680066992
</vert_displacement>
</event>
<event>
 4   1200 +8.6263000e+09 3.71076000e-02 7.81665300e-03            nan
       50 -1    0    0    0    0 -1.8103122839e-02 +1.5320946604e-02 +6.0586465552e+00 6.0586950304e+00 4.9935713700e-03 0.0000e+00 0.0000e+00
       11 -1    0    0    0    0 +4.7686191286e-19 -4.0357544770e-19 -1.5959333709e-16 5.1100000000e-04 5.1099893000e-04 0.0000e+00 1.0000e+00
       50  1    1    2    0    0 -2.1741065971e-02 -2.5156740790e-02 +4.0997595024e+00 4.0998973706e+00 4.9935713700e-03 0.0000e+00 0.0000e+00
       11  1    1    2    0    0 +3.6379431320e-03 +4.0477687394e-02 +1.9588870528e+00 1.9593086598e+00 5.1099893000e-04 0.0000e+00 1.0000e+00
<vert_displacement>
139.90968366123448
</vert_displacement>
</event>
<event>
 4   1200 +8.6263000e+09 3.43173900e-02 7.81665300e-03            nan
       50 -1    0    0    0    0 -4.5590402986e-02 +2.7660405299e-02 +2.2612255135e+01 2.2612318563e+01 4.9935713700e-03 0.0000e+00 0.0000e+00
       11 -1    0    0    0    0 -4.6726694588e-18 +2.8349811055e-18 +2.3175841195e-15 5.1100000000e-04 5.1099893000e-04 0.0000e+00 1.0000e+00
       50  1    1    2    0    0 -2.9911888518e-02 +5.7452011061e-02 +2.1421519957e+01 2.1421618465e+01 4.9935713700e-03 0.0000e+00 0.0000e+00
       11  1    1    2    0    0 -1.5678514469e-02 -2.9791605762e-02 +1.1907351775e+00 1.1912110978e+00 5.1099893000e-04 0.0000e+00 1.0000e+00
<vert_displacement>
4.4316088142388805
</vert_displacement>
</event>
<event>
 4   1200 +8.6263000e+09 1.45454400e-02 7.81665300e-03            nan
       50 -1    0    0    0    0 -3.2632468427e-02 +3.8340827893e-02 +1.7127277485e+01 1.7127352214e+01 4.9935713700e-03 0.0000e+00 0.0000e+00
       11 -1    0    0    0    0 +1.9566433836e-18 -2.2989167180e-18 -1.0269518606e-15 5.1100000000e-04 5.1099893000e-04 0.0000e+00 1.0000e+00
       50  1    1    2    0    0 -4.5700416155e-02 +4.0485877297e-02 +1.6942632229e+01 1.6942742972e+01 4.9935713700e-03 0.0000e+00 0.0000e+00
       11  1    1    2    0    0 +1.3067947728e-02 -2.1450494040e-03 +1.8464525594e-01 1.8512024242e-01 5.1099893000e-04 0.0000e+00 1.0000e+00
<vert_displacement>
79.861144068023279
</vert_displacement>
</event>
<event>
 4   1200 +8.6263000e+09 2.12772300e-02 7.81665300e-03            nan
       50 -1    0    0    0    0 +9.4403125721e-03 +5.3423283754e-03 +5.0219131759e+00 5.0219273732e+00 4.9935713700e-03 0.0000e+00 0.0000e+00
       11 -1    0    0    0    0 -5.2175473577e-19 -2.9526407189e-19 -2.7755510870e-16 5.1100000000e-04 5.1099893000e-04 0.0000e+00 1.0000e+00
       50  1    1    2    0    0 +5.9414149831e-03 +2.5366536724e-02 +4.5607245073e+00 4.5608016541e+00 4.9935713700e-03 0.0000e+00 0.0000e+00
       11  1    1    2    0    0 +3.4988975890e-03 -2.0024208349e-02 +4.6118866861e-01 4.6163671905e-01 5.1099893000e-04 0.0000e+00 1.0000e+00
<vert_displacement>
154.65368643752535
</vert_displacement>
</event>
<event>
 4   1200 +8.6263000e+09 3.08611000e-02 7.81665300e-03            nan
       50 -1    0    0    0    0 -5.5502448210e-04 +2.1606685431e-02 +8.3773859511e+00 8.3774153214e+00 4.9935713700e-03 0.0000e+00 0.0000e+00
       11 -1    0    0    0    0 -6.4360654742e-21 +2.5055118576e-19 +9.7144191335e-17 5.1100000000e-04 5.1099893000e-04 0.0000e+00 1.0000e+00
       50  1    1    2    0    0 -1.1710904829e-02 +4.7244867632e-02 +7.3412501652e+00 7.3414132254e+00 4.9935713700e-03 0.0000e+00 0.0000e+00
       11  1    1    2    0    0 +1.1155880347e-02 -2.5638182200e-02 +1.0361357859e+00 1.0365130959e+00 5.1099893000e-04 0.0000e+00 1.0000e+00
<vert_displacement>
101.00022045952768
</vert_displacement>
</event>
<event>
 4   1200 +8.6263000e+09 9.62597800e-03 7.81665300e-03            nan
       50 -1    0    0    0    0 -1.3086942401e-02 +8.5345240061e-03 +1.2943018062e+01 1.2943028455e+01 4.9935713700e-03 0.0000e+00 0.0000e+00
       11 -1    0    0    0    0 +4.2797894072e-19 -2.7910236263e-19 -4.2327221975e-16 5.1100000000e-04 5.1099893000e-04 0.0000e+00 1.0000e+00
       50  1    1    2    0    0 -1.0583976430e-02 +1.6351356329e-02 +1.2876403457e+01 1.2876419158e+01 4.9935713700e-03 0.0000e+00 0.0000e+00
       11  1    1    2    0    0 -2.5029659701e-03 -7.8168323234e-03 +6.6614604201e-02 6.7120297369e-02 5.1099893000e-04 0.0000e+00 1.0000e+00
<vert_displacement>
383.79330583294723
</vert_displacement>
</event>
<event>
 4   1200 +8.6263000e+09 1.68344200e-02 7.81665300e-03            nan
       50 -1    0    0    0    0 +3.4284609143e-03 +1.0417105923e-04 +1.0359277456e+00 1.0359454595e+00 4.9935713700e-03 0.0000e+00 0.0000e+00
       11 -1    0    0    0    0 -8.3820542747e-19 -2.5468205533e-20 -2.5326823917e-16 5.1100000000e-04 5.1099893000e-04 0.0000e+00 1.0000e+00
       50  1    1    2    0    0 -1.2623540386e-02 +7.2995825390e-03 +5.2188180132e-01 5.2210936401e-01 4.9935713700e-03 0.0000e+00 0.0000e+00
       11  1    1    2    0    0 +1.6052001301e-02 -7.1954114798e-03 +5.1404594429e-01 5.1434709550e-01 5.1099893000e-04 0.0000e+00 1.0000e+00
<vert_displacement>
247.01329867759108
</vert_displacement>
</event>
<event>
 4   1200 +8.6263000e+09 1.45694400e-02 7.81665300e-03            nan
       50 -1    0    0    0    0 -9.5821212495e-03 -2.3090440836e-03 +4.0200286109e+00 4.0200437954e+00 4.9935713700e-03 0.0000e+00 0.0000e+00
       11 -1    0    0    0    0 -6.4503913856e-19 -1.5543779585e-19 +2.7061604886e-16 5.1100000000e-04 5.1099893000e-04 0.0000e+00 1.0000e+00
       50  1    1    2    0    0 -2.0201648897e-02 +5.8387735342e-03 +3.8274002438e+00 3.8274612682e+00 4.9935713700e-03 0.0000e+00 0.0000e+00
       11  1    1    2    0    0 +1.0619527647e-02 -8.1478176178e-03 +1.9262836717e-01 1.9309352723e-01 5.1099893000e-04 0.0000e+00 1.0000e+00
<vert_displacement>
132.20838707259395
</vert_displacement>
</event>
<event>
 4   1200 +8.6263000e+09 1.72406000e-02 7.81665300e-03            nan
       50 -1    0    0    0    0 -4.0327554518e-02 -9.9105098267e-03 +1.6102567662e+01 1.6102621984e+01 4.9935713700e-03 0.0000e+00 0.0000e+00
       11 -1    0    0    0    0 -5.1785934929e-18 -1.2726410593e-18 +2.0677835071e-15 5.1100000000e-04 5.1099893000e-04 0.0000e+00 1.0000e+00
       50  1    1    2    0    0 -2.3193947255e-02 -1.0983945647e-02 +1.5831591485e+01 1.5831613072e+01 4.9935713700e-03 0.0000e+00 0.0000e+00
       11  1    1    2    0    0 -1.7133607263e-02 +1.0734358206e-03 +2.7097617745e-01 2.7151991203e-01 5.1099893000e-04 0.0000e+00 1.0000e+00
<vert_displacement>
131.23479913406391
</vert_displacement>
</event>
<event>
 4   1200 +8.6263000e+09 8.99563500e-03 7.81665300e-03            nan
       50 -1    0    0    0    0 -5.5386663205e-03 +5.7066368507e-04 +2.1435309653e+00 2.1435440135e+00 4.9935713700e-03 0.0000e+00 0.0000e+00
       11 -1    0    0    0    0 +7.3510280287e-19 -7.5739618551e-20 -2.8449369026e-16 5.1100000000e-04 5.1099893000e-04 0.0000e+00 1.0000e+00
       50  1    1    2    0    0 -1.0718769841e-02 +5.8115331291e-03 +2.0872275134e+00 2.0872690997e+00 4.9935713700e-03 0.0000e+00 0.0000e+00
       11  1    1    2    0    0 +5.1801035207e-03 -5.2408694441e-03 +5.6303451907e-02 5.6785913760e-02 5.1099893000e-04 0.0000e+00 1.0000e+00
<vert_displacement>
461.54243491861143
</vert_displacement>
</event>
<event>
 4   1200 +8.6263000e+09 1.99809800e-02 7.81665300e-03            nan
       50 -1    0    0    0    0 -1.8335648237e-02 -2.8490182937e-02 +1.3203217087e+01 1.3203261502e+01 4.9935713700e-03 0.0000e+00 0.0000e+00
       11 -1    0    0    0    0 +5.9744373505e-19 +9.2831630963e-19 -4.3021000563e-16 5.1100000000e-04 5.1099893000e-04 0.0000e+00 1.0000e+00
       50  1    1    2    0    0 -3.3716570539e-03 -4.0552119486e-02 +1.2826162749e+01 1.2826228270e+01 4.9935713700e-03 0.0000e+00 0.0000e+00
       11  1    1    2    0    0 -1.4963991183e-02 +1.2061936549e-02 +3.7705433829e-01 3.7754423117e-01 5.1099893000e-04 0.0000e+00 1.0000e+00
<vert_displacement>
498.20357674880069
</vert_displacement>
</event>
<event>
 4   1200 +8.6263000e+09 6.57592000e-03 7.81665300e-03            nan
       50 -1    0    0    0    0 -5.2274820617e-03 +2.3658645519e-02 +1.5368406701e+01 1.5368426612e+01 4.9935713700e-03 0.0000e+00 0.0000e+00
       11 -1    0    0    0    0 +1.4161350245e-20 -6.4091729355e-20 -4.1633311683e-17 5.1100000000e-04 5.1099893000e-04 0.0000e+00 1.0000e+00
       50  1    1    2    0    0 -8.6885024725e-03 +2.6138229780e-02 +1.5350467242e+01 1.5350492766e+01 4.9935713700e-03 0.0000e+00 0.0000e+00
       11  1    1    2    0    0 +3.4610204108e-03 -2.4795842610e-03 +1.7939459188e-02 1.8444845249e-02 5.1099893000e-04 0.0000e+00 1.0000e+00
<vert_displacement>
380.07923512273999
</vert_displacement>
</event>
<event>
 4   1200 +8.6263000e+09 7.67062500e-03 7.81665300e-03            nan
       50 -1    0    0    0    0 -1.1729708152e-02 +1.4915000399e-02 +7.5985809660e+00 7.5986062982e+00 4.9935713700e-03 0.0000e+00 0.0000e+00
       11 -1    0    0    0    0 +3.9631939682e-19 -5.0394296985e-19 -2.5673827397e-16 5.1100000000e-04 5.1099893000e-04 0.0000e+00 1.0000e+00
       50  1    1    2    0    0 -1.5832593817e-02 +1.8929315764e-02 +7.5652448918e+00 7.5652867889e+00 4.9935713700e-03 0.0000e+00 0.0000e+00
       11  1    1    2    0    0 +4.1028856649e-03 -4.0143153651e-03 +3.3336074179e-02 3.3830509310e-02 5.1099893000e-04 0.0000e+00 1.0000e+00
<vert_displacement>
354.31704127911200
</vert_displacement>
</event>
<event>
 4   1200 +8.6263000e+09 1.25046300e-02 7.81665300e-03            nan
       50 -1    0    0    0    0 +1.0361811297e-02 +6.2653816925e-03 +3.9729159335e+00 3.9729375244e+00 4.9935713700e-03 0.0000e+00 0.0000e+00
       11 -1    0    0    0    0 +2.5336263617e-19 +1.5319846856e-19 +9.7144063458e-17 5.1100000000e-04 5.1099893000e-04 0.0000e+00 1.0000e+00
       50  1    1    2    0    0 +1.7314552366e-02 -2.7842923963e-03 +3.8398077148e+00 3.8398510086e+00 4.9935713700e-03 0.0000e+00 0.0000e+00
       11  1    1    2    0    0 -6.9527410684e-03 +9.0496740887e-03 +1.3310821878e-01 1.3359751583e-01 5.1099893000e-04 0.0000e+00 1.0000e+00
<vert_displacement>
222.55422724327843
</vert_displacement>
</event>
<event>
 4   1200 +8.6263000e+09 3.36860700e-02 7.81665300e-03            nan
       50 -1    0    0    0    0 -5.6937806123e-02 +1.2416662735e-02 +2.4044951292e+01 2.4045022430e+01 4.9935713700e-03 0.0000e+00 0.0000e+00
       11 -1    0    0    0    0 -1.9717281885e-19 +4.2998291624e-20 +8.3266482295e-17 5.1100000000e-04 5.1099893000e-04 0.0000e+00 1.0000e+00
       50  1    1    2    0    0 -3.6065721696e-02 +3.9748832955e-02 +2.2904926921e+01 2.2904990349e+01 4.9935713700e-03 0.0000e+00 0.0000e+00
       11  1    1    2    0    0 -2.0872084428e-02 -2.7332170221e-02 +1.1400243712e+00 1.1405430810e+00 5.1099893000e-04 0.0000e+00 1.0000e+00
<vert_displacement>
184.10036393323878
</vert_displacement>
</event>
<event>
 4   1200 +8.6263000e+09 1.58391500e-02 7.81665300e-03            nan
       50 -1    0    0    0    0 -2.6993283058e-02 -2.9614630083e-02 +1.5878921991e+01 1.5878973336e+01 4.9935713700e-03 0.0000e+00 0.0000e+00
       11 -1    0    0    0    0 -1.9816768672e-18 -2.1741196594e-18 +1.1657304641e-15 5.1100000000e-04 5.1099893000e-04 0.0000e+00 1.0000e+00
       50  1    1    2    0    0 -4.0793623467e-02 -3.4178863376e-02 +1.5654630872e+01 1.5654722131e+01 4.9935713700e-03 0.0000e+00 0.0000e+00
       11  1    1    2    0    0 +1.3800340410e-02 +4.5642332931e-03 +2.2429111886e-01 2.2476220487e-01 5.1099893000e-04 0.0000e+00 1.0000e+00
<vert_displacement>
45.861669624481834
</vert_displacement>
</event>
<event>
 4   1200 +8.6263000e+09 1.93036100e-02 7.81665300e-03            nan
       50 -1    0    0    0    0 -6.6073485959e-03 +1.5267530726e-02 +9.4008453041e+00 9.4008613500e+00 4.9935713700e-03 0.0000e+00 0.0000e+00
       11 -1    0    0    0    0 -1.7557083799e-19 +4.0568968393e-19 +2.4979978941e-16 5.1100000000e-04 5.1099893000e-04 0.0000e+00 1.0000e+00
       50  1    1    2    0    0 +2.1272434198e-03 +3.1296928799e-02 +9.0472659967e+00 9.0473217569e+00 4.9935713700e-03 0.0000e+00 0.0000e+00
       11  1    1    2    0    0 -8.7345920157e-03 -1.6029398073e-02 +3.5357930743e-01 3.5405059308e-01 5.1099893000e-04 0.0000e+00 1.0000e+00
<vert_displacement>
208.27372200618569
</vert_displacement>
</event>
<event>
 4   1200 +8.6263000e+09 3.92453600e-02 7.81665300e-03            nan
       50 -1    0    0    0    0 +3.5552875905e-02 -4.5720622843e-02 +2.0358327372e+01 2.0358410368e+01 4.9935713700e-03 0.0000e+00 0.0000e+00
       11 -1    0    0    0    0 +1.2117726131e-19 -1.5583267796e-19 +6.9388658246e-17 5.1100000000e-04 5.1099893000e-04 0.0000e+00 1.0000e+00
       50  1    1    2    0    0 +4.7027853745e-02 -7.8314090082e-02 +1.8748042531e+01 1.8748265743e+01 4.9935713700e-03 0.0000e+00 0.0000e+00
       11  1    1    2    0    0 -1.1474977840e-02 +3.2593467238e-02 +1.6102848418e+00 1.6106556249e+00 5.1099893000e-04 0.0000e+00 1.0000e+00
<vert_displacement>
260.40379281125507
</vert_displacement>
</event>
<event>
 4   1200 +8.6263000e+09 9.86626300e-03 7.81665300e-03            nan
       50 -1    0    0    0    0 -1.2557794177e-01 -4.7854668471e-02 +3.9785281494e+01 3.9785508773e+01 4.9935713700e-03 0.0000e+00 0.0000e+00
       11 -1    0    0    0    0 +2.1332298495e-17 +8.1292148748e-18 -6.7584441070e-15 5.1100000000e-04 5.1099893000e-04 0.0000e+00 1.0000e+00
       50  1    1    2    0    0 -1.2865840052e-01 -3.9927883657e-02 +3.9714304570e+01 3.9714533356e+01 4.9935713700e-03 0.0000e+00 0.0000e+00
       11  1    1    2    0    0 +3.0804587497e-03 -7.9267848134e-03 +7.0976923133e-02 7.1486417457e-02 5.1099893000e-04 0.0000e+00 1.0000e+00
<vert_displacement>
494.61727379069919
</vert_displacement>
</event>
<event>
 4   1200 +8.6263000e+09 3.19693900e-02 7.81665300e-03            nan
       50 -1    0    0    0    0 -5.4713130778e-02 +3.5435229146e-02 +2.4870908577e+01 2.4870994503e+01 4.9935713700e-03 0.0000e+00 0.0000e+00
       11 -1    0    0    0    0 +9.4641226623e-19 -6.1294857457e-19 -4.3020994439e-16 5.1100000000e-04 5.1099893000e-04 0.0000e+00 1.0000e+00
       50  1    1    2    0    0 -2.1842279709e-02 +4.1649307762e-02 +2.3853654174e+01 2.3853701058e+01 4.9935713700e-03 0.0000e+00 0.0000e+00
       11  1    1    2    0    0 -3.2870851068e-02 -6.2140786159e-03 +1.0172544024e+00 1.0178044449e+00 5.1099893000e-04 0.0000e+00 1.0000e+00
<vert_displacement>
257.69921242446060
</vert_displacement>
</event>
<event>
 4   1200 +8.6263000e+09 3.06017900e-02 7.81665300e-03            nan
       50 -1    0    0    0    0 -1.1776974315e-02 -5.1450169835e-03 +4.2937510815e+00 4.2937732187e+00 4.9935713700e-03 0.0000e+00 0.0000e+00
       11 -1    0    0    0    0 +3.9967267810e-19 +1.7460534953e-19 -1.4571611926e-16 5.1100000000e-04 5.1099893000e-04 0.0000e+00 1.0000e+00
       50  1    1    2    0    0 +1.9094871471e-02 +9.0768750694e-03 +3.0244207253e+00 3.0244987458e+00 4.9935713700e-03 0.0000e+00 0.0000e+00
       11  1    1    2    0    0 -3.0871845786e-02 -1.4221892053e-02 +1.2693303561e+00 1.2697854729e+00 5.1099893000e-04 0.0000e+00 1.0000e+00
<vert_displacement>
157.93890472711135
</vert_displacement>
</event>
<event>
 4   1200 +8.6263000e+09 1.00879800e-02 7.81665300e-03            nan
       50 -1    0    0    0    0 -2.4294114255e-02 +1.5011069670e-02 +8.6992188398e+00 8.6992671470e+00 4.9935713700e-03 0.0000e+00 0.0000e+00
       11 -1    0    0    0    0 +2.4803826802e-18 -1.5326015523e-18 -8.8817363396e-16 5.1100000000e-04 5.1099893000e-04 0.0000e+00 1.0000e+00
       50  1    1    2    0    0 -3.2616399372e-02 +1.2880075104e-02 +8.6233535743e+00 8.6234263219e+00 4.9935713700e-03 0.0000e+00 0.0000e+00
       11  1    1    2    0    0 +8.3222851168e-03 +2.1309945653e-03 +7.5865265547e-02 7.6351825150e-02 5.1099893000e-04 0.0000e+00 1.0000e+00
<vert_displacement>
424.52704175147971
</vert_displacement>
</event>
<event>
 4   1200 +8.6263000e+09 1.63768100e-02 7.81665300e-03            nan
       50 -1    0    0    0    0 -5.7303184852e-03 +2.0139955402e-03 +3.7729028405e+00 3.7729110343e+00 4.9935713700e-03 0.0000e+00 0.0000e+00
       11 -1    0    0    0    0 -8.4310722346e-20 +2.9632108449e-20 +5.5511079296e-17 5.1100000000e-04 5.1099893000e-04 0.0000e+00 1.0000e+00
       50  1    1    2    0    0 -1.2180245488e-02 -1.2140460616e-02 +3.5174315228e+00 3.5174771076e+00 4.9935713700e-03 0.0000e+00 0.0000e+00
       11  1    1    2    0    0 +6.4499270024e-03 +1.4154456156e-02 +2.5547131768e-01 2.5594492663e-01 5.1099893000e-04 0.0000e+00 1.0000e+00
<vert_displacement>
303.35718961206010
</vert_displacement>
</event>
<event>
 4   1200 +8.6263000e+09 2.88508600e-02 7.81665300e-03            nan
       50 -1    0    0    0    0 +1.7695168161e-02 +2.5223903597e-03 +6.4889649869e+00 6.4889915255e+00 4.9935713700e-03 0.0000e+00 0.0000e+00
       11 -1    0    0    0    0 -2.4598646717e-18 -3.5064594344e-19 -9.0205278538e-16 5.1100000000e-04 5.1099893000e-04 0.0000e+00 1.0000e+00
       50  1    1    2    0    0 -1.0841889476e-02 -9.2448471886e-03 +5.5675908998e+00 5.5676113709e+00 4.9935713700e-03 0.0000e+00 0.0000e+00
       11  1    1    2    0    0 +2.8537057636e-02 +1.1767237548e-02 +9.2137408709e-01 9.2189115465e-01 5.1099893000e-04 0.0000e+00 1.0000e+00
<vert_displacement>
271.25732689404259
</vert_displacement>
</event>
<event>
 4   1200 +8.6263000e+09 1.28597500e-02 7.81665300e-03            nan
       50 -1    0    0    0    0 +1.7126800312e-02 +3.8007844309e-03 +7.6412255512e+00 7.6412473218e+00 4.9935713700e-03 0.0000e+00 0.0000e+00
       11 -1    0    0    0    0 +9.3315452819e-20 +2.0708592018e-20 +4.1633253696e-17 5.1100000000e-04 5.1099893000e-04 0.0000e+00 1.0000e+00
       50  1    1    2    0    0 +2.8646147484e-02 +3.0879850395e-03 +7.5012033037e+00 7.5012602992e+00 4.9935713700e-03 0.0000e+00 0.0000e+00
       11  1    1    2    0    0 -1.1519347172e-02 +7.1279939140e-04 +1.4002224752e-01 1.4049802263e-01 5.1099893000e-04 0.0000e+00 1.0000e+00
<vert_displacement>
472.61827575817347
</vert_displacement>
</event>
<event>
 4   1200 +8.6263000e+09 1.06455800e-02 7.81665300e-03            nan
       50 -1    0    0    0    0 -9.4024242559e-03 +1.0405432826e-02 +5.5594143127e+00 5.5594342442e+00 4.9935713700e-03 0.0000e+00 0.0000e+00
       11 -1    0    0    0    0 +2.4644440493e-19 -2.7273399191e-19 -1.4571630835e-16 5.1100000000e-04 5.1099893000e-04 0.0000e+00 1.0000e+00
       50  1    1    2    0    0 -1.8448783325e-02 +1.2201546680e-02 +5.4715019506e+00 5.4715489367e+00 4.9935713700e-03 0.0000e+00 0.0000e+00
       11  1    1    2    0    0 +9.0463590696e-03 -1.7961138543e-03 +8.7912362125e-02 8.8396307455e-02 5.1099893000e-04 0.0000e+00 1.0000e+00
<vert_displacement>
309.08176297548016
</vert_displacement>
</event>
<event>
 4   1200 +8.6263000e+09 4.13028700e-02 7.81665300e-03            nan
       50 -1    0    0    0    0 +1.7159107261e-03 +3.3005119156e-02 +1.3827917535e+01 1.3827957932e+01 4.9935713700e-03 0.0000e+00 0.0000e+00
       11 -1    0    0    0    0 +2.1526177821e-20 +4.1405071554e-19 +1.7347185213e-16 5.1100000000e-04 5.1099893000e-04 0.0000e+00 1.0000e+00
       50  1    1    2    0    0 -2.1125563814e-03 +6.9291230744e-02 +1.1919004193e+01 1.1919206837e+01 4.9935713700e-03 0.0000e+00 0.0000e+00
       11  1    1    2    0    0 +3.8284671075e-03 -3.6286111587e-02 +1.9089133420e+00 1.9092620951e+00 5.1099893000e-04 0.0000e+00 1.0000e+00
<vert_displacement>
418.72886211529033
</vert_displacement>
</event>
<event>
 4   1200 +8.6263000e+09 1.89304900e-02 7.81665300e-03            nan
       50 -1    0    0    0    0 -6.2289955769e-03 +6.6916872319e-03 +2.4496882292e+01 2.4496884507e+01 4.9935713700e-03 0.0000e+00 0.0000e+00
       11 -1    0    0    0    0 -5.7519489652e-19 +6.1792054552e-19 +2.2620792551e-15 5.1100000000e-04 5.1099893000e-04 0.0000e+00 1.0000e+00
       50  1    1    2    0    0 -4.5320189649e-03 -1.1587285569e-02 +2.4166161256e+01 2.4166164975e+01 4.9935713700e-03 0.0000e+00 0.0000e+00
       11  1    1    2    0    0 -1.6969766119e-03 +1.8278972801e-02 +3.3072103562e-01 3.3123053165e-01 5.1099893000e-04 0.0000e+00 1.0000e+00
<vert_displacement>
63.892085829202820
</vert_displacement>
</event>
<event>
 4   1200 +8.6263000e+09 7.46662100e-03 7.81665300e-03            nan
       50 -1    0    0    0    0 -9.9223717870e-03 -1.2103230314e-02 +1.1533379919e+01 1.1533391619e+01 4.9935713700e-03 0.0000e+00 0.0000e+00
       11 -1    0    0    0    0 -4.8354151150e-19 -5.8982009601e-19 +5.6204988874e-16 5.1100000000e-04 5.1099893000e-04 0.0000e+00 1.0000e+00
       50  1    1    2    0    0 -1.4220778987e-02 -1.5552026831e-02 +1.1503140487e+01 1.1503160874e+01 4.9935713700e-03 0.0000e+00 0.0000e+00
       11  1    1    2    0    0 +4.2984072001e-03 +3.4487965169e-03 +3.0239432381e-02 3.0741745111e-02 5.1099893000e-04 0.0000e+00 1.0000e+00
<vert_displacement>
8.1867567202005080
</vert_displacement>
</event>
<event>
 4   1200 +8.6263000e+09 8.78109200e-03 7.81665300e-03            nan
       50 -1    0    0    0    0 -7.8858036044e-02 -1.8145427174e-02 +2.6994434906e+01 2.6994556649e+01 4.9935713700e-03 0.0000e+00 0.0000e+00
       11 -1    0    0    0    0 +2.9594626821e-18 +6.8097960928e-19 -1.0130739584e-15 5.1100000000e-04 5.1099893000e-04 0.0000e+00 1.0000e+00
       50  1    1    2    0    0 -7.2667128893e-02 -2.2069828195e-02 +2.6943303406e+01 2.6943410901e+01 4.9935713700e-03 0.0000e+00 0.0000e+00
       11  1    1    2    0    0 -6.1909071511e-03 +3.9244010210e-03 +5.1131499314e-02 5.1656747834e-02 5.1099893000e-04 0.0000e+00 1.0000e+00
<vert_displacement>
67.087035286285413
</vert_displacement>
</event>
<event>
 4   1200 +8.6263000e+09 9.12426000e-03 7.81665300e-03            nan
       50 -1    0    0    0    0 +2.1705206805e-02 -9.1604654242e-03 +7.3682382703e+00 7.3682776260e+00 4.9935713700e-03 0.0000e+00 0.0000e+00
       11 -1    0    0    0    0 -1.6352278719e-18 +6.9013156683e-19 -5.5510867481e-16 5.1100000000e-04 5.1099893000e-04 0.0000e+00 1.0000e+00
       50  1    1    2    0    0 +2.7797486468e-02 -1.3460096603e-02 +7.3106992615e+00 7.3107662049e+00 4.9935713700e-03 0.0000e+00 0.0000e+00
       11  1    1    2    0    0 -6.0922796625e-03 +4.2996311786e-03 +5.7539008769e-02 5.8022421096e-02 5.1099893000e-04 0.0000e+00 1.0000e+00
<vert_displacement>
324.49241446822674
</vert_displacement>
</event>
<event>
 4   1200 +8.6263000e+09 2.33987300e-02 7.81665300e-03            nan
       50 -1    0    0    0    0 +1.9614829121e-02 -1.5134543300e-02 +6.9140848343e+00 6.9141310248e+00 4.9935713700e-03 0.0000e+00 0.0000e+00
       11 -1    0    0    0    0 +1.9488233690e-18 -1.5036863936e-18 +6.8694608641e-16 5.1100000000e-04 5.1099893000e-04 0.0000e+00 1.0000e+00
       50  1    1    2    0    0 +2.3185105859e-02 -3.6189219112e-02 +6.3577620156e+00 6.3579092468e+00 4.9935713700e-03 0.0000e+00 0.0000e+00
       11  1    1    2    0    0 -3.5702767379e-03 +2.1054675812e-02 +5.5632281875e-01 5.5673277794e-01 5.1099893000e-04 0.0000e+00 1.0000e+00
<vert_displacement>
425.20837769132646
</vert_displacement>
</event>
<event>
 4   1200 +8.6263000e+09 1.51129700e-02 7.81665300e-03            nan
       50 -1    0    0    0    0 +8.0478657872e-03 +8.7193699310e-03 +4.0045625275e+00 4.0045832203e+00 4.9935713700e-03 0.0000e+00 0.0000e+00
       11 -1    0    0    0    0 -4.4623534341e-19 -4.8346867833e-19 -2.2204363019e-16 5.1100000000e-04 5.1099893000e-04 0.0000e+00 1.0000e+00
       50  1    1    2    0    0 +1.8592619490e-02 -8.5899898840e-04 +3.7943481297e+00 3.7943970652e+00 4.9935713700e-03 0.0000e+00 0.0000e+00
       11  1    1    2    0    0 -1.0544753702e-02 +9.5783689194e-03 +2.1021439778e-01 2.1069715503e-01 5.1099893000e-04 0.0000e+00 1.0000e+00
<vert_displacement>
195.30823136698933
</vert_displacement>
</event>
<event>
 4   1200 +8.6263000e+09 6.06874800e-03 7.81665300e-03            nan
       50 -1    0    0    0    0 -2.9352685111e-02 -4.2492246814e-02 +2.2289355111e+01 2.2289415501e+01 4.9935713700e-03 0.0000e+00 0.0000e+00
       11 -1    0    0    0    0 -1.6630710421e-18 -2.4075352876e-18 +1.2628753006e-15 5.1100000000e-04 5.1099893000e-04 0.0000e+00 1.0000e+00
       50  1    1    2    0    0 -3.1567004961e-02 -3.9838966761e-02 +2.2277712949e+01 2.2277771495e+01 4.9935713700e-03 0.0000e+00 0.0000e+00
       11  1    1    2    0    0 +2.2143198503e-03 -2.6532800533e-03 +1.1642162408e-02 1.2155006084e-02 5.1099893000e-04 0.0000e+00 1.0000e+00
<vert_displacement>
35.584508033137325
</vert_displacement>
</event>
<event>
 4   1200 +8.6263000e+09 2.81546000e-02 7.81665300e-03            nan
       50 -1    0    0    0    0 +4.3939013734e-03 -3.7692130917e-03 +6.0343224701e+00 6.0343273132e+00 4.9935713700e-03 0.0000e+00 0.0000e+00
       11 -1    0    0    0    0 -3.7388974761e-19 +3.2073321902e-19 -5.1347791260e-16 5.1100000000e-04 5.1099893000e-04 0.0000e+00 1.0000e+00
       50  1    1    2    0    0 -1.6388977418e-02 -2.2246956791e-02 +5.1541432696e+00 5.1542197572e+00 4.9935713700e-03 0.0000e+00 0.0000e+00
       11  1    1    2    0    0 +2.0782878791e-02 +1.8477743700e-02 +8.8017920052e-01 8.8061855602e-01 5.1099893000e-04 0.0000e+00 1.0000e+00
<vert_displacement>
294.03905690632416
</vert_displacement>
</event>
<event>
 4   1200 +8.6263000e+09 1.37177500e-02 7.81665300e-03            nan
       50 -1    0    0    0    0 +7.1118922123e-03 +1.3866200319e-03 +2.1547339834e+00 2.1547519525e+00 4.9935713700e-03 0.0000e+00 0.0000e+00
       11 -1    0    0    0    0 -2.5192541432e-19 -4.9118408380e-20 -7.6327401389e-17 5.1100000000e-04 5.1099893000e-04 0.0000e+00 1.0000e+00
       50  1    1    2    0    0 +1.2558121797e-02 +1.2543854420e-02 +1.9807396890e+00 1.9808255113e+00 4.9935713700e-03 0.0000e+00 0.0000e+00
       11  1    1    2    0    0 -5.4462295845e-03 -1.1157234388e-02 +1.7399429442e-01 1.7443744124e-01 5.1099893000e-04 0.0000e+00 1.0000e+00
<vert_displacement>
191.75609585865769
</vert_displacement>
</event>
<event>
 4   1200 +8.6263000e+09 8.18046600e-03 7.81665300e-03            nan
       50 -1    0    0    0    0 +8.3541035463e-03 -2.5731131863e-02 +1.0088951160e+01 1.0088988667e+01 4.9935713700e-03 0.0000e+00 0.0000e+00
       11 -1    0    0    0    0 +7.9290582155e-19 -2.4421967164e-18 +9.5756391614e-16 5.1100000000e-04 5.1099893000e-04 0.0000e+00 1.0000e+00
       50  1    1    2    0    0 +1.0451421596e-02 -1.9507027223e-02 +1.0047713496e+01 1.0047739108e+01 4.9935713700e-03 0.0000e+00 0.0000e+00
       11  1    1    2    0    0 -2.0973180498e-03 -6.2241046401e-03 +4.1237663822e-02 4.1760558653e-02 5.1099893000e-04 0.0000e+00 1.0000e+00
<vert_displacement>
9.1148430348126723
</vert_displacement>
</event>
<event>
 4   1200 +8.6263000e+09 8.72233600e-03 7.81665300e-03            nan
       50 -1    0    0    0    0 -3.8889698209e-02 +5.4763361168e-02 +2.6201472651e+01 2.6201559218e+01 4.9935713700e-03 0.0000e+00 0.0000e+00
       11 -1    0    0    0    0 -2.1216068651e-18 +2.9875861311e-18 +1.4294074476e-15 5.1100000000e-04 5.1099893000e-04 0.0000e+00 1.0000e+00
       50  1    1    2    0    0 -4.0185719100e-02 +4.7639653637e-02 +2.6151345982e+01 2.6151420727e+01 4.9935713700e-03 0.0000e+00 0.0000e+00
       11  1    1    2    0    0 +1.2960208911e-03 +7.1237075316e-03 +5.0126669140e-02 5.0649491193e-02 5.1099893000e-04 0.0000e+00 1.0000e+00
<vert_displacement>
362.79880996911311
</vert_displacement>
</event>
<event>
 4   1200 +8.6263000e+09 2.34317300e-02 7.81665300e-03            nan
       50 -1    0    0    0    0 -4.8982370221e-03 +1.2958397660e-02 +5.5220402032e+00 5.5220598380e+00 4.9935713700e-03 0.0000e+00 0.0000e+00
       11 -1    0    0    0    0 -4.9240119675e-20 +1.3026585865e-19 +5.5510976547e-17 5.1100000000e-04 5.1099893000e-04 0.0000e+00 1.0000e+00
       50  1    1    2    0    0 -2.6989552228e-02 +1.5274025458e-02 +4.9495271734e+00 4.9496268453e+00 4.9935713700e-03 0.0000e+00 0.0000e+00
       11  1    1    2    0    0 +2.2091315206e-02 -2.3156277985e-03 +5.7251302976e-01 5.7294399264e-01 5.1099893000e-04 0.0000e+00 1.0000e+00
<vert_displacement>
290.48909761708785
</vert_displacement>
</event>
<event>
 4   1200 +8.6263000e+09 1.51303800e-02 7.81665300e-03            nan
       50 -1    0    0    0    0 -4.6972265294e-02 +5.5890431272e-02 +2.9909654616e+01 2.9909744136e+01 4.9935713700e-03 0.0000e+00 0.0000e+00
       11 -1    0    0    0    0 -1.4602387155e-18 +1.7374800014e-18 +9.2980901313e-16 5.1100000000e-04 5.1099893000e-04 0.0000e+00 1.0000e+00
       50  1    1    2    0    0 -3.3922068561e-02 +6.1981938946e-02 +2.9708707168e+01 2.9708791611e+01 4.9935713700e-03 0.0000e+00 0.0000e+00
       11  1    1    2    0    0 -1.3050196734e-02 -6.0915076741e-03 +2.0094744750e-01 2.0146352493e-01 5.1099893000e-04 0.0000e+00 1.0000e+00
<vert_displacement>
3.8083523344716617
</vert_displacement>
</event>
<event>
 4   1200 +8.6263000e+09 2.42937600e-02 7.81665300e-03            nan
       50 -1    0    0    0    0 -1.3689254992e-02 -9.3439996387e-03 +6.6418356500e+00 6.6418582072e+00 4.9935713700e-03 0.0000e+00 0.0000e+00
       11 -1    0    0    0    0 +1.5016540175e-18 +1.0249976792e-18 -7.2858159141e-16 5.1100000000e-04 5.1099893000e-04 0.0000e+00 1.0000e+00
       50  1    1    2    0    0 +1.0678528947e-02 -1.4061592115e-02 +6.0326706706e+00 6.0326985765e+00 4.9935713700e-03 0.0000e+00 0.0000e+00
       11  1    1    2    0    0 -2.4367783939e-02 +4.7175924759e-03 +6.0916497943e-01 6.0967063064e-01 5.1099893000e-04 0.0000e+00 1.0000e+00
<vert_displacement>
356.09189279319634
</vert_displacement>
</event>
<event>
 4   1200 +8.6263000e+09 1.77117500e-02 7.81665300e-03            nan
       50 -1    0    0    0    0 +1.5851944981e-03 -4.5021297918e-02 +1.8869620116e+01 1.8869674552e+01 4.9935713700e-03 0.0000e+00 0.0000e+00
       11 -1    0    0    0    0 -2.4482609138e-19 +6.9533350081e-18 -2.9143271343e-15 5.1100000000e-04 5.1099893000e-04 0.0000e+00 1.0000e+00
       50  1    1    2    0    0 -1.5268087445e-02 -4.6692337593e-02 +1.8582686416e+01 1.8582752020e+01 4.9935713700e-03 0.0000e+00 0.0000e+00
       11  1    1    2    0    0 +1.6853281943e-02 +1.6710396749e-03 +2.8693370068e-01 2.8743353178e-01 5.1099893000e-04 0.0000e+00 1.0000e+00
<vert_displacement>
265.49102029949654
</vert_displacement>
</event>
<event>
 4   1200 +8.6263000e+09 8.41799600e-03 7.81665300e-03            nan
       50 -1    0    0    0    0 -1.9088778523e-03 +1.6393694524e-02 +6.7158452199e+00 6.7158673565e+00 4.9935713700e-03 0.0000e+00 0.0000e+00
       11 -1    0    0    0    0 +1.1044712703e-19 -9.4853448030e-19 -3.8857688522e-16 5.1100000000e-04 5.1099893000e-04 0.0000e+00 1.0000e+00
       50  1    1    2    0    0 +9.1491425618e-04 +1.0116776723e-02 +6.6706135758e+00 6.6706231793e+00 4.9935713700e-03 0.0000e+00 0.0000e+00
       11  1    1    2    0    0 -2.8237921085e-03 +6.2769178011e-03 +4.5231644092e-02 4.5755177261e-02 5.1099893000e-04 0.0000e+00 1.0000e+00
<vert_displacement>
492.87110389569818
</vert_displacement>
</event>
<event>
 4   1200 +8.6263000e+09 1.13535400e-02 7.81665300e-03            nan
       50 -1    0    0    0    0 +6.1227134433e-03 -3.4791898566e-02 +1.7205064571e+01 1.7205101563e+01 4.9935713700e-03 0.0000e+00 0.0000e+00
       11 -1    0    0    0    0 +4.0496809285e-19 -2.3012033700e-18 +1.1379762015e-15 5.1100000000e-04 5.1099893000e-04 0.0000e+00 1.0000e+00
       50  1    1    2    0    0 +1.1265349883e-02 -4.3368120196e-02 +1.7102703397e+01 1.7102762821e+01 4.9935713700e-03 0.0000e+00 0.0000e+00
       11  1    1    2    0    0 -5.1426364401e-03 +8.5762216293e-03 +1.0236117447e-01 1.0284974208e-01 5.1099893000e-04 0.0000e+00 1.0000e+00
<vert_displacement>
82.136543380455223
</vert_displacement>
</event>
<event>
 4   1200 +8.6263000e+09 2.01225600e-02 7.81665300e-03            nan
       50 -1    0    0    0    0 -4.3972140935e-02 +2.7222411097e-02 +2.0906201776e+01 2.0906266339e+01 4.9935713700e-03 0.0000e+00 0.0000e+00
       11 -1    0    0    0    0 -2.6270231326e-19 +1.6263457306e-19 +1.2489970811e-16 5.1100000000e-04 5.1099893000e-04 0.0000e+00 1.0000e+00
       50  1    1    2    0    0 -5.2365600188e-02 +4.3920165716e-02 +2.0527483303e+01 2.0527597688e+01 4.9935713700e-03 0.0000e+00 0.0000e+00
       11  1    1    2    0    0 +8.3934592528e-03 -1.6697754619e-02 +3.7871847304e-01 3.7917965150e-01 5.1099893000e-04 0.0000e+00 1.0000e+00
<vert_displacement>
345.00272334076550
</vert_displacement>
</event>
<event>
 4   1200 +8.6263000e+09 1.36170000e-02 7.81665300e-03            nan
       50 -1    0    0    0    0 -1.0336772002e-02 +1.0223118428e-02 +6.1098658268e+00 6.1098851641e+00 4.9935713700e-03 0.0000e+00 0.0000e+00
       11 -1    0    0    0    0 +1.2913232391e-19 -1.2771250444e-19 -7.6327616864e-17 5.1100000000e-04 5.1099893000e-04 0.0000e+00 1.0000e+00
       50  1    1    2    0    0 -1.0832634911e-02 -2.6917844758e-03 +5.9485644989e+00 5.9485770673e+00 4.9935713700e-03 0.0000e+00 0.0000e+00
       11  1    1    2    0    0 +4.9586290935e-04 +1.2914902904e-02 +1.6130132786e-01 1.6181909679e-01 5.1099893000e-04 0.0000e+00 1.0000e+00
<vert_displacement>
384.57356485082596
</vert_displacement>
</event>
<event>
 4   1200 +8.6263000e+09 6.01163600e-02 7.81665300e-03            nan
       50 -1    0    0    0    0 -5.6225516189e-02 -5.5739848742e-02 +2.7592719410e+01 2.7592833447e+01 4.9935713700e-03 0.0000e+00 0.0000e+00
       11 -1    0    0    0    0 -8.2007844982e-19 -8.1299473704e-19 +4.0245418973e-16 5.1100000000e-04 5.1099893000e-04 0.0000e+00 1.0000e+00
       50  1    1    2    0    0 -7.8901949470e-02 -9.8602690491e-02 +2.3461782269e+01 2.3462122670e+01 4.9935713700e-03 0.0000e+00 0.0000e+00
       11  1    1    2    0    0 +2.2676433281e-02 +4.2862841749e-02 +4.1309371414e+00 4.1312217771e+00 5.1099893000e-04 0.0000e+00 1.0000e+00
<vert_displacement>
52.960155610638338
</vert_displacement>
</event>
<event>
 4   1200 +8.6263000e+09 1.20227500e-02 7.81665300e-03            nan
       50 -1    0    0    0    0 -1.9789823619e-02 -3.1866964013e-02 +1.9456580627e+01 1.9456617429e+01 4.9935713700e-03 0.0000e+00 0.0000e+00
       11 -1    0    0    0    0 +4.6580997127e-19 +7.5007993386e-19 -4.5796614651e-16 5.1100000000e-04 5.1099893000e-04 0.0000e+00 1.0000e+00
       50  1    1    2    0    0 -1.4249586747e-02 -2.2175210193e-02 +1.9338849224e+01 1.9338867832e+01 4.9935713700e-03 0.0000e+00 0.0000e+00
       11  1    1    2    0    0 -5.5402368717e-03 -9.6917538198e-03 +1.1773140329e-01 1.1826059681e-01 5.1099893000e-04 0.0000e+00 1.0000e+00
<vert_displacement>
393.68461224836079
</vert_displacement>
</event>
<event>
 4   1200 +8.6263000e+09 1.02354300e-02 7.81665300e-03            nan
       50 -1    0    0    0    0 -6.8998731662e-03 +9.8902151298e-03 +5.0984377947e+00 5.0984545018e+00 4.9935713700e-03 0.0000e+00 0.0000e+00
       11 -1    0    0    0    0 +1.4085889400e-19 -2.0190585117e-19 -1.0408311741e-16 5.1100000000e-04 5.1099893000e-04 0.0000e+00 1.0000e+00
       50  1    1    2    0    0 +1.0854345260e-03 +1.3951352398e-02 +5.0190815921e+00 5.0191035835e+00 4.9935713700e-03 0.0000e+00 0.0000e+00
       11  1    1    2    0    0 -7.9853076922e-03 -4.0611372679e-03 +7.9356202618e-02 7.9861918263e-02 5.1099893000e-04 0.0000e+00 1.0000e+00
<vert_displacement>
359.30635704354307
</vert_displacement>
</event>
<event>
 4   1200 +8.6263000e+09 5.43233300e-03 7.81665300e-03            nan
       50 -1    0    0    0    0 +2.8711579234e-02 +3.2579052573e-02 +1.3967070452e+01 1.3967138852e+01 4.9935713700e-03 0.0000e+00 0.0000e+00
       11 -1    0    0    0    0 +1.7829941494e-18 +2.0231649279e-18 +8.6735754580e-16 5.1100000000e-04 5.1099893000e-04 0.0000e+00 1.0000e+00
       50  1    1    2    0    0 +2.9689238107e-02 +3.4466117929e-02 +1.3962586407e+01 1.3962661404e+01 4.9935713700e-03 0.0000e+00 0.0000e+00
       11  1    1    2    0    0 -9.7765887337e-04 -1.8870653555e-03 +4.4840452600e-03 4.9884480882e-03 5.1099893000e-04 0.0000e+00 1.0000e+00
<vert_displacement>
203.57042594265377
</vert_displacement>
</event>
<event>
 4   1200 +8.6263000e+09 3.66092500e-02 7.81665300e-03            nan
       50 -1    0    0    0    0 -1.2771163082e-02 -4.4870274341e-03 +1.7862342114e+01 1.7862347941e+01 4.9935713700e-03 0.0000e+00 0.0000e+00
       11 -1    0    0    0    0 +1.9844591407e-19 +6.9722096175e-20 -2.7755567646e-16 5.1100000000e-04 5.1099893000e-04 0.0000e+00 1.0000e+00
       50  1    1    2    0    0 +2.4489862596e-02 -4.7004817569e-03 +1.6466043577e+01 1.6466063217e+01 4.9935713700e-03 0.0000e+00 0.0000e+00
       11  1    1    2    0    0 -3.7261025677e-02 +2.1345432275e-04 +1.3962985364e+00 1.3967957236e+00 5.1099893000e-04 0.0000e+00 1.0000e+00
<vert_displacement>
103.93057767676754
</vert_displacement>
</event>
<event>
 4   1200 +8.6263000e+09 1.33866600e-02 7.81665300e-03            nan
       50 -1    0    0    0    0 +3.3862445463e-03 -4.4420024538e-04 +1.3002656942e+00 1.3002797681e+00 4.9935713700e-03 0.0000e+00 0.0000e+00
       11 -1    0    0    0    0 +6.3247448135e-20 -8.2966636336e-21 +2.4286044890e-17 5.1100000000e-04 5.1099893000e-04 0.0000e+00 1.0000e+00
       50  1    1    2    0    0 -2.8839446264e-03 -1.1359794252e-02 +1.1252825417e+00 1.1253546536e+00 4.9935713700e-03 0.0000e+00 0.0000e+00
       11  1    1    2    0    0 +6.2701891727e-03 +1.0915594007e-02 +1.7498315255e-01 1.7543611447e-01 5.1099893000e-04 0.0000e+00 1.0000e+00
<vert_displacement>
246.24562268054277
</vert_displacement>
</event>
<event>
 4   1200 +8.6263000e+09 1.77214900e-02 7.81665300e-03            nan
       50 -1    0    0    0    0 -3.8345494973e-03 -1.1845251962e-02 +6.6578862364e+00 6.6578997504e+00 4.9935713700e-03 0.0000e+00 0.0000e+00
       11 -1    0    0    0    0 -2.0381570333e-19 -6.2960417162e-19 +3.5388297033e-16 5.1100000000e-04 5.1099893000e-04 0.0000e+00 1.0000e+00
       50  1    1    2    0    0 +1.0830335869e-02 -2.4285445590e-03 +6.3617778345e+00 6.3617894767e+00 4.9935713700e-03 0.0000e+00 0.0000e+00
       11  1    1    2    0    0 -1.4664885366e-02 -9.4167074029e-03 +2.9610840190e-01 2.9662127375e-01 5.1099893000e-04 0.0000e+00 1.0000e+00
<vert_displacement>
267.40353371418081
</vert_displacement>
</event>
<event>
 4   1200 +8.6263000e+09 1.93355300e-02 7.81665300e-03            nan
       50 -1    0    0    0    0 +5.7602461866e-03 +7.8326901164e-03 +5.3533622705e+00 5.3533734286e+00 4.9935713700e-03 0.0000e+00 0.0000e+00
       11 -1    0    0    0    0 +2.0158940655e-19 +2.7411803266e-19 +1.8734982641e-16 5.1100000000e-04 5.1099893000e-04 0.0000e+00 1.0000e+00
       50  1    1    2    0    0 +1.3713445106e-02 -9.4143437711e-03 +4.9867009368e+00 4.9867311795e+00 4.9935713700e-03 0.0000e+00 0.0000e+00
       11  1    1    2    0    0 -7.9531989196e-03 +1.7247033888e-02 +3.6666133368e-01 3.6715324905e-01 5.1099893000e-04 0.0000e+00 1.0000e+00
<vert_displacement>
244.23633563895135
</vert_displacement>
</event>
<event>
 4   1200 +8.6263000e+09 8.74565700e-03 7.81665300e-03            nan
       50 -1    0    0    0    0 +5.9648001158e-02 +3.3619138868e-02 +1.8595667921e+01 1.8595794645e+01 4.9935713700e-03 0.0000e+00 0.0000e+00
       11 -1    0    0    0    0 +1.2909202386e-18 +7.2759565996e-19 +4.0245311833e-16 5.1100000000e-04 5.1099893000e-04 0.0000e+00 1.0000e+00
       50  1    1    2    0    0 +5.7744334279e-02 +2.6562218359e-02 +1.8545106239e+01 1.8545215833e+01 4.9935713700e-03 0.0000e+00 0.0000e+00
       11  1    1    2    0    0 +1.9036668786e-03 +7.0569205087e-03 +5.0561681938e-02 5.1089811851e-02 5.1099893000e-04 0.0000e+00 1.0000e+00
<vert_displacement>
164.36423018969063
</vert_displacement>
</event>
<event>
 4   1200 +8.6263000e+09 2.08582600e-02 7.81665300e-03            nan
       50 -1    0    0    0    0 +6.8774428898e-03 -1.8062626920e-04 +7.3609059316e+00 7.3609108405e+00 4.9935713700e-03 0.0000e+00 0.0000e+00
       11 -1    0    0    0    0 -6.0941569657e-19 +1.6005437693e-20 -6.5225574208e-16 5.1100000000e-04 5.1099893000e-04 0.0000e+00 1.0000e+00
       50  1    1    2    0    0 -3.4261841009e-03 -1.7834022169e-02 +6.9348407688e+00 6.9348663445e+00 4.9935713700e-03 0.0000e+00 0.0000e+00
       11  1    1    2    0    0 +1.0303626991e-02 +1.7653395900e-02 +4.2606516278e-01 4.2655549600e-01 5.1099893000e-04 0.0000e+00 1.0000e+00
<vert_displacement>
430.83981616248582
</vert_displacement>
</event>
<event>
 4   1200 +8.6263000e+09 2.33235300e-02 7.81665300e-03            nan
       50 -1    0    0    0    0 -4.8965745633e-04 -2.1519446760e-02 +8.4684683996e+00 8.4684972278e+00 4.9935713700e-03 0.0000e+00 0.0000e+00
       11 -1    0    0    0    0 -2.8084997215e-20 -1.2342783604e-18 +4.8572100424e-16 5.1100000000e-04 5.1099893000e-04 0.0000e+00 1.0000e+00
       50  1    1    2    0    0 +1.7912502888e-02 -3.3614731795e-02 +7.9256375379e+00 7.9257306367e+00 4.9935713700e-03 0.0000e+00 0.0000e+00
       11  1    1    2    0    0 -1.8402160345e-02 +1.2095285035e-02 +5.4283086175e-01 5.4327759112e-01 5.1099893000e-04 0.0000e+00 1.0000e+00
<vert_displacement>
196.87872648155414
</vert_displacement>
</event>
<event>
 4   1200 +8.6263000e+09 2.45192600e-02 7.81665300e-03            nan
       50 -1    0    0    0    0 +4.7973486407e-03 +2.7499200109e-03 +3.0158162057e+00 3.0158254092e+00 4.9935713700e-03 0.0000e+00 0.0000e+00
       11 -1    0    0    0    0 -6.1812164955e-19 -3.5431760762e-19 -3.8857740545e-16 5.1100000000e-04 5.1099893000e-04 0.0000e+00 1.0000e+00
       50  1    1    2    0    0 -1.7500725208e-02 -9.3873760835e-03 +2.2619221352e+00 2.2620148275e+00 4.9935713700e-03 0.0000e+00 0.0000e+00
       11  1    1    2    0    0 +2.2298073848e-02 +1.2137296094e-02 +7.5389407047e-01 7.5432158173e-01 5.1099893000e-04 0.0000e+00 1.0000e+00
<vert_displacement>
123.88586215597091
</vert_displacement>
</event>
<event>
 4   1200 +8.6263000e+09 6.34990600e-03 7.81665300e-03            nan
       50 -1    0    0    0    0 -2.5049789927e-02 -1.6387443336e-02 +1.6861055397e+01 1.6861082707e+01 4.9935713700e-03 0.0000e+00 0.0000e+00
       11 -1    0    0    0    0 -2.3091753559e-18 -1.5106506046e-18 +1.5543097850e-15 5.1100000000e-04 5.1099893000e-04 0.0000e+00 1.0000e+00
       50  1    1    2    0    0 -2.8716862857e-02 -1.5041099696e-02 +1.6845982940e+01 1.6846014871e+01 4.9935713700e-03 0.0000e+00 0.0000e+00
       11  1    1    2    0    0 +3.6670729302e-03 -1.3463436408e-03 +1.5072457056e-02 1.5578836500e-02 5.1099893000e-04 0.0000e+00 1.0000e+00
<vert_displacement>
442.27130372889724
</vert_displacement>
</event>
<event>
 4   1200 +8.6263000e+09 1.31737400e-02 7.81665300e-03            nan
       50 -1    0    0    0    0 -7.9588274825e-03 -2.9937572039e-04 +4.0958273152e+00 4.0958381028e+00 4.9935713700e-03 0.0000e+00 0.0000e+00
       11 -1    0    0    0    0 +5.3933284626e-20 +2.0287304849e-21 -2.7755523141e-17 5.1100000000e-04 5.1099893000e-04 0.0000e+00 1.0000e+00
       50  1    1    2    0    0 -1.5731499584e-02 -9.4288284558e-03 +3.9447782836e+00 3.9448240804e+00 4.9935713700e-03 0.0000e+00 0.0000e+00
       11  1    1    2    0    0 +7.7726721019e-03 +9.1294527354e-03 +1.5104903161e-01 1.5152502238e-01 5.1099893000e-04 0.0000e+00 1.0000e+00
<vert_displacement>
290.38147393290569
</vert_displacement>
</event>
<event>
 4   1200 +8.6263000e+09 1.34620800e-02 7.81665300e-03            nan
       50 -1    0    0    0    0 +1.9359480673e-04 +1.3050560132e-02 +7.2861190135e+00 7.2861324150e+00 4.9935713700e-03 0.0000e+00 0.0000e+00
       11 -1    0    0    0    0 +1.4749489174e-20 +9.9428852783e-19 +5.5511062166e-16 5.1100000000e-04 5.1099893000e-04 0.0000e+00 1.0000e+00
       50  1    1    2    0    0 -4.8023311925e-03 +1.3087676544e-03 +7.1298376530e+00 7.1298411392e+00 4.9935713700e-03 0.0000e+00 0.0000e+00
       11  1    1    2    0    0 +4.9959259992e-03 +1.1741792477e-02 +1.5628136048e-01 1.5680227588e-01 5.1099893000e-04 0.0000e+00 1.0000e+00
<vert_displacement>
208.71909668424479
</vert_displacement>
</event>
<event>
 4   1200 +8.6263000e+09 1.79009500e-02 7.81665300e-03            nan
       50 -1    0    0    0    0 +1.6549265792e-03 -7.4451943330e-03 +3.3999887596e+00 3.4000009810e+00 4.9935713700e-03 0.0000e+00 0.0000e+00
       11 -1    0    0    0    0 +8.1059075462e-20 -3.6466908976e-19 +1.6653303470e-16 5.1100000000e-04 5.1099893000e-04 0.0000e+00 1.0000e+00
       50  1    1    2    0    0 -1.7246771029e-03 -2.3631020450e-02 +3.0805434180e+00 3.0806385841e+00 4.9935713700e-03 0.0000e+00 0.0000e+00
       11  1    1    2    0    0 +3.3796036822e-03 +1.6185826117e-02 +3.1944534159e-01 3.1987339695e-01 5.1099893000e-04 0.0000e+00 1.0000e+00
<vert_displacement>
345.46724454572842
</vert_displacement>
</event>
<event>
 4   1200 +8.6263000e+09 1.54788500e-02 7.81665300e-03            nan
       50 -1    0    0    0    0 -1.6764985453e-02 -2.2707956752e-02 +1.3418626153e+01 1.3418656770e+01 4.9935713700e-03 0.0000e+00 0.0000e+00
       11 -1    0    0    0    0 -4.1612676587e-19 -5.6363834190e-19 +3.3306617052e-16 5.1100000000e-04 5.1099893000e-04 0.0000e+00 1.0000e+00
       50  1    1    2    0    0 -1.7542701762e-02 -7.7327914509e-03 +1.3205202523e+01 1.3205217384e+01 4.9935713700e-03 0.0000e+00 0.0000e+00
       11  1    1    2    0    0 +7.7771630893e-04 -1.4975165301e-02 +2.1342363037e-01 2.1395038569e-01 5.1099893000e-04 0.0000e+00 1.0000e+00
<vert_displacement>
301.13790496671015
</vert_displacement>
</event>
<event>
 4   1200 +8.6263000e+09 2.35867500e-02 7.81665300e-03            nan
       50 -1    0    0    0    0 -6.8298627532e-03 -3.3050744766e-03 +2.5965626169e+00 2.5965785044e+00 4.9935713700e-03 0.0000e+00 0.0000e+00
       11 -1    0    0    0    0 +4.9279391155e-19 +2.3847046978e-19 -1.8734933553e-16 5.1100000000e-04 5.1099893000e-04 0.0000e+00 1.0000e+00
       50  1    1    2    0    0 +1.3624330045e-02 -1.6068367789e-02 +1.8730267698e+00 1.8731518975e+00 4.9935713700e-03 0.0000e+00 0.0000e+00
       11  1    1    2    0    0 -2.0454192798e-02 +1.2763293312e-02 +7.2353584702e-01 7.2393760691e-01 5.1099893000e-04 0.0000e+00 1.0000e+00
<vert_displacement>
154.35673632877578
</vert_displacement>
</event>
<event>
 4   1200 +8.6263000e+09 1.03840400e-02 7.81665300e-03            nan
       50 -1    0    0    0    0 +5.1568703211e-02 -3.3255623741e-02 +1.6082889498e+01 1.6083007331e+01 4.9935713700e-03 0.0000e+00 0.0000e+00
       11 -1    0    0    0    0 +3.7378210057e-18 -2.4104458952e-18 +1.1657256912e-15 5.1100000000e-04 5.1099893000e-04 0.0000e+00 1.0000e+00
       50  1    1    2    0    0 +5.8933407424e-02 -3.8060364769e-02 +1.6001330748e+01 1.6001485318e+01 4.9935713700e-03 0.0000e+00 0.0000e+00
       11  1    1    2    0    0 -7.3647042128e-03 +4.8047410279e-03 +8.1558749205e-02 8.2033012235e-02 5.1099893000e-04 0.0000e+00 1.0000e+00
<vert_displacement>
374.29643902237876
</vert_displacement>
</event>
<event>
 4   1200 +8.6263000e+09 9.96867700e-03 7.81665300e-03            nan
       50 -1    0    0    0    0 +2.6826705735e-02 +4.6535492686e-03 +1.0487448440e+01 1.0487484973e+01 4.9935713700e-03 0.0000e+00 0.0000e+00
       11 -1    0    0    0    0 +8.3422682028e-19 +1.4471085819e-19 +3.2612691441e-16 5.1100000000e-04 5.1099893000e-04 0.0000e+00 1.0000e+00
       50  1    1    2    0    0 +3.4381779681e-02 +8.4274051417e-03 +1.0414073014e+01 1.0414134377e+01 4.9935713700e-03 0.0000e+00 0.0000e+00
       11  1    1    2    0    0 -7.5550739459e-03 -3.7738558732e-03 +7.3375425919e-02 7.3861596105e-02 5.1099893000e-04 0.0000e+00 1.0000e+00
<vert_displacement>
417.20507078806264
</vert_displacement>
</event>
<event>
 4   1200 +8.6263000e+09 4.68125300e-02 7.81665300e-03            nan
       50 -1    0    0    0    0 +1.0024090836e-02 +3.5862866758e-02 +2.3502255795e+01 2.3502285825e+01 4.9935713700e-03 0.0000e+00 0.0000e+00
       11 -1    0    0    0    0 +1.3140385819e-18 +4.7011934897e-18 +3.0808650263e-15 5.1100000000e-04 5.1099893000e-04 0.0000e+00 1.0000e+00
       50  1    1    2    0    0 +3.4980565633e-02 -6.3653763624e-03 +2.1145921370e+01 2.1145951851e+01 4.9935713700e-03 0.0000e+00 0.0000e+00
       11  1    1    2    0    0 -2.4956474797e-02 +4.2228243121e-02 +2.3563344247e+00 2.3568449741e+00 5.1099893000e-04 0.0000e+00 1.0000e+00
<vert_displacement>
57.475907228175863
</vert_displacement>
</event>
<event>
 4   1200 +8.6263000e+09 1.98024300e-02 7.81665300e-03            nan
       50 -1    0    0    0    0 -2.0238169605e-02 -9.2015365463e-03 +8.6934632272e+00 8.6934930879e+00 4.9935713700e-03 0.0000e+00 0.0000e+00
       11 -1    0    0    0    0 -2.6007170978e-18 -1.1824485064e-18 +1.1171582656e-15 5.1100000000e-04 5.1099893000e-04 0.0000e+00 1.0000e+00
       50  1    1    2    0    0 -3.3411890279e-03 -1.9314718534e-02 +8.3179018344e+00 8.3179264294e+00 4.9935713700e-03 0.0000e+00 0.0000e+00
       11  1    1    2    0    0 -1.6896980577e-02 +1.0113181987e-02 +3.7556139276e-01 3.7607765854e-01 5.1099893000e-04 0.0000e+00 1.0000e+00
<vert_displacement>
113.55281498608197
</vert_displacement>
</event>
<event>
 4   1200 +8.6263000e+09 2.00443800e-02 7.81665300e-03            nan
       50 -1    0    0    0    0 +5.5341255784e-03 +6.7675493263e-03 +1.2210243601e+01 1.2210247751e+01 4.9935713700e-03 0.0000e+00 0.0000e+00
       11 -1    0    0    0    0 +3.0820586075e-19 +3.7689754880e-19 +6.8001142829e-16 5.1100000000e-04 5.1099893000e-04 0.0000e+00 1.0000e+00
       50  1    1    2    0    0 +2.3072422564e-02 +1.4504426537e-02 +1.1829597459e+01 1.1829629905e+01 4.9935713700e-03 0.0000e+00 0.0000e+00
       11  1    1    2    0    0 -1.7538296985e-02 -7.7368772104e-03 +3.8064614195e-01 3.8112884649e-01 5.1099893000e-04 0.0000e+00 1.0000e+00
<vert_displacement>
55.232367665024960
</vert_displacement>
</event>
<event>
 4   1200 +8.6263000e+09 1.43128400e-02 7.81665300e-03            nan
       50 -1    0    0    0    0 +3.1800935675e-02 -2.8347301156e-02 +1.1953340040e+01 1.1953416997e+01 4.9935713700e-03 0.0000e+00 0.0000e+00
       11 -1    0    0    0    0 +1.6060437284e-18 -1.4316247077e-18 +6.0367993573e-16 5.1100000000e-04 5.1099893000e-04 0.0000e+00 1.0000e+00
       50  1    1    2    0    0 +2.8615472809e-02 -1.4786601459e-02 +1.1774645364e+01 1.1774690479e+01 4.9935713700e-03 0.0000e+00 0.0000e+00
       11  1    1    2    0    0 +3.1854628654e-03 -1.3560699697e-02 +1.7869467542e-01 1.7923751809e-01 5.1099893000e-04 0.0000e+00 1.0000e+00
<vert_displacement>
211.47138072406531
</vert_displacement>
</event>
<event>
 4   1200 +8.6263000e+09 8.94414700e-03 7.81665300e-03            nan
       50 -1    0    0    0    0 -1.6898321760e-01 +5.5770260360e-02 +5.2631475154e+01 5.2631776214e+01 4.9935713700e-03 0.0000e+00 0.0000e+00
       11 -1    0    0    0    0 -3.0744319442e-18 +1.0146680388e-18 +9.5756188564e-16 5.1100000000e-04 5.1099893000e-04 0.0000e+00 1.0000e+00
       50  1    1    2    0    0 -1.7621107668e-01 +5.6248222607e-02 +5.2577518596e+01 5.2577844201e+01 4.9935713700e-03 0.0000e+00 0.0000e+00
       11  1    1    2    0    0 +7.2278590803e-03 -4.7796224752e-04 +5.3956558265e-02 5.4443013275e-02 5.1099893000e-04 0.0000e+00 1.0000e+00
<vert_displacement>
241.72158117446824
</vert_displacement>
</event>
<event>
 4   1200 +8.6263000e+09 5.46449700e-02 7.81665300e-03            nan
       50 -1    0    0    0    0 -1.9886832238e-02 -3.3715558366e-02 +2.8653999037e+01 2.8654026209e+01 4.9935713700e-03 0.0000e+00 0.0000e+00
       11 -1    0    0    0    0 -8.0905769306e-19 -1.3716529383e-18 +1.1657330881e-15 5.1100000000e-04 5.1099893000e-04 0.0000e+00 1.0000e+00
       50  1    1    2    0    0 -5.1192168461e-02 +1.2956508699e-02 +2.5382819653e+01 2.5382875073e+01 4.9935713700e-03 0.0000e+00 0.0000e+00
       11  1    1    2    0    0 +3.1305336223e-02 -4.6672067066e-02 +3.2711793840e+00 3.2716621356e+00 5.1099893000e-04 0.0000e+00 1.0000e+00
<vert_displacement>
143.23346270676316
</vert_displacement>
</event>
<event>
 4   1200 +8.6263000e+09 6.49930400e-03 7.81665300e-03            nan
       50 -1    0    0    0    0 -2.6203893811e-02 +6.0426228920e-03 +8.8337015720e+00 8.8337439151e+00 4.9935713700e-03 0.0000e+00 0.0000e+00
       11 -1    0    0    0    0 -1.7495657487e-18 +4.0345019409e-19 +5.8980324893e-16 5.1100000000e-04 5.1099893000e-04 0.0000e+00 1.0000e+00
       50  1    1    2    0    0 -2.9786251607e-02 +4.0040231196e-03 +8.8167259250e+00 8.8167785628e+00 4.9935713700e-03 0.0000e+00 0.0000e+00
       11  1    1    2    0    0 +3.5823577962e-03 +2.0385997724e-03 +1.6975646992e-02 1.7476352225e-02 5.1099893000e-04 0.0000e+00 1.0000e+00
<vert_displacement>
313.51526809327783
</vert_displacement>
</event>
<event>
 4   1200 +8.6263000e+09 1.15019100e-02 7.81665300e-03            nan
       50 -1    0    0    0    0 -1.2167466648e-02 +2.2958392188e-02 +1.0441872344e+01 1.0441905866e+01 4.9935713700e-03 0.0000e+00 0.0000e+00
       11 -1    0    0    0    0 -1.4796594676e-18 +2.7919207296e-18 +1.2698136531e-15 5.1100000000e-04 5.1099893000e-04 0.0000e+00 1.0000e+00
       50  1    1    2    0    0 -2.2389537135e-02 +2.3293930850e-02 +1.0335725781e+01 1.0335777487e+01 4.9935713700e-03 0.0000e+00 0.0000e+00
       11  1    1    2    0    0 +1.0222070488e-02 -3.3553866211e-04 +1.0614656267e-01 1.0663937921e-01 5.1099893000e-04 0.0000e+00 1.0000e+00
<vert_displacement>
44.601794583970232
</vert_displacement>
</event>
<event>
 4   1200 +8.6263000e+09 1.56598000e-02 7.81665300e-03            nan
       50 -1    0    0    0    0 -1.7616995750e-03 -9.2743834186e-03 +4.0354163427e+00 4.0354304742e+00 4.9935713700e-03 0.0000e+00 0.0000e+00
       11 -1    0    0    0    0 -7.2701572012e-20 -3.8273395960e-19 +1.6653299802e-16 5.1100000000e-04 5.1099893000e-04 0.0000e+00 1.0000e+00
       50  1    1    2    0    0 +1.1858060463e-02 -1.4873056523e-02 +3.8068018385e+00 3.8068526363e+00 4.9935713700e-03 0.0000e+00 0.0000e+00
       11  1    1    2    0    0 -1.3619760038e-02 +5.5986731044e-03 +2.2861450416e-01 2.2908883786e-01 5.1099893000e-04 0.0000e+00 1.0000e+00
<vert_displacement>
117.53977214449561
</vert_displacement>
</event>
<event>
 4   1200 +8.6263000e+09 1.25263800e-02 7.81665300e-03            nan
       50 -1    0    0    0    0 -3.8339479019e-05 -3.4688479868e-02 +1.3434234795e+01 1.3434280508e+01 4.9935713700e-03 0.0000e+00 0.0000e+00
       11 -1    0    0    0    0 -2.7327579005e-21 -2.4725223149e-18 +9.5756416660e-16 5.1100000000e-04 5.1099893000e-04 0.0000e+00 1.0000e+00
       50  1    1    2    0    0 -1.1286267314e-02 -3.2017188280e-02 +1.3303834605e+01 1.3303878856e+01 4.9935713700e-03 0.0000e+00 0.0000e+00
       11  1    1    2    0    0 +1.1247927835e-02 -2.6712915882e-03 +1.3040019051e-01 1.3091265212e-01 5.1099893000e-04 0.0000e+00 1.0000e+00
<vert_displacement>
92.175053370569415
</vert_displacement>
</event>
<event>
 4   1200 +8.6263000e+09 2.32610700e-02 7.81665300e-03            nan
       50 -1    0    0    0    0 +2.9493141743e-02 -9.1444728755e-03 +9.8078801994e+00 9.8079300776e+00 4.9935713700e-03 0.0000e+00 0.0000e+00
       11 -1    0    0    0    0 +3.0255336163e-18 -9.3807944671e-19 +1.0061346297e-15 5.1100000000e-04 5.1099893000e-04 0.0000e+00 1.0000e+00
       50  1    1    2    0    0 +9.9451442703e-03 -2.2583419529e-02 +9.2736962483e+00 9.2737304230e+00 4.9935713700e-03 0.0000e+00 0.0000e+00
       11  1    1    2    0    0 +1.9547997473e-02 +1.3438946654e-02 +5.3418395105e-01 5.3471065462e-01 5.1099893000e-04 0.0000e+00 1.0000e+00
<vert_displacement>
372.52518379808680
</vert_displacement>
</event>
<event>
 4   1200 +8.6263000e+09 1.47099400e-02 7.81665300e-03            nan
       50 -1    0    0    0    0 -9.3554628116e-04 +1.3018141878e-02 +5.2060433369e+00 5.2060620923e+00 4.9935713700e-03 0.0000e+00 0.0000e+00
       11 -1    0    0    0    0 +7.9804311308e-20 -1.1104783034e-18 -4.4408781426e-16 5.1100000000e-04 5.1099893000e-04 0.0000e+00 1.0000e+00
       50  1    1    2    0    0 -5.3368839844e-03 -5.7450689989e-04 +5.0114201470e+00 5.0114255096e+00 4.9935713700e-03 0.0000e+00 0.0000e+00
       11  1    1    2    0    0 +4.4013377032e-03 +1.3592648778e-02 +1.9462318988e-01 1.9514758270e-01 5.1099893000e-04 0.0000e+00 1.0000e+00
<vert_displacement>
135.62031986898566
</vert_displacement>
</event>
<event>
 4   1200 +8.6263000e+09 1.46640300e-02 7.81665300e-03            nan
       50 -1    0    0    0    0 +1.2881587662e-01 +1.1264996931e-01 +4.7791440223e+01 4.7791746851e+01 4.9935713700e-03 0.0000e+00 0.0000e+00
       11 -1    0    0    0    0 +1.3091963264e-17 +1.1448971188e-17 +4.8571945957e-15 5.1100000000e-04 5.1099893000e-04 0.0000e+00 1.0000e+00
       50  1    1    2    0    0 +1.2095534115e-01 +1.2387039769e-01 +4.7604695973e+01 4.7605011056e+01 4.9935713700e-03 0.0000e+00 0.0000e+00
       11  1    1    2    0    0 +7.8605354667e-03 -1.1220428374e-02 +1.8674425061e-01 1.8724679513e-01 5.1099893000e-04 0.0000e+00 1.0000e+00
<vert_displacement>
2.6445628171802142
</vert_displacement>
</event>
<event>
 4   1200 +8.6263000e+09 1.30163700e-02 7.81665300e-03            nan
       50 -1    0    0    0    0 -5.0213458779e-03 +3.6537335944e-03 +9.5969387805e+00 9.5969420889e+00 4.9935713700e-03 0.0000e+00 0.0000e+00
       11 -1    0    0    0    0 +1.8879083735e-19 -1.3737182053e-19 -3.6082240746e-16 5.1100000000e-04 5.1099893000e-04 0.0000e+00 1.0000e+00
       50  1    1    2    0    0 -1.2566549994e-02 -5.6972092392e-03 +9.4533986963e+00 9.4534100844e+00 4.9935713700e-03 0.0000e+00 0.0000e+00
       11  1    1    2    0    0 +7.5452041164e-03 +9.3509428336e-03 +1.4354008421e-01 1.4404300446e-01 5.1099893000e-04 0.0000e+00 1.0000e+00
<vert_displacement>
466.53679839727516
</vert_displacement>
</event>
<event>
 4   1200 +8.6263000e+09 9.64723200e-03 7.81665300e-03            nan
       50 -1    0    0    0    0 -1.2988129680e-02 -1.5550778308e-02 +6.4559255641e+00 6.4559592891e+00 4.9935713700e-03 0.0000e+00 0.0000e+00
       11 -1    0    0    0    0 +5.8630756868e-19 +7.0199014374e-19 -2.9143210873e-16 5.1100000000e-04 5.1099893000e-04 0.0000e+00 1.0000e+00
       50  1    1    2    0    0 -1.8364414263e-02 -2.1532774565e-02 +6.3885222279e+00 6.3885868628e+00 4.9935713700e-03 0.0000e+00 0.0000e+00
       11  1    1    2    0    0 +5.3762845834e-03 +5.9819962569e-03 +6.7403336210e-02 6.7883426308e-02 5.1099893000e-04 0.0000e+00 1.0000e+00
<vert_displacement>
115.10789457467293
</vert_displacement>
</event>
<event>
 4   1200 +8.6263000e+09 1.09789300e-02 7.81665300e-03            nan
       50 -1    0    0    0    0 +4.9757536209e-02 -3.2412552505e-02 +1.5365562844e+01 1.5365678405e+01 4.9935713700e-03 0.0000e+00 0.0000e+00
       11 -1    0    0    0    0 -4.7186383509e-18 +3.0737678140e-18 -1.4571568378e-15 5.1100000000e-04 5.1099893000e-04 0.0000e+00 1.0000e+00
       50  1    1    2    0    0 +5.9015410538e-02 -3.4252442489e-02 +1.5271404560e+01 1.5271557819e+01 4.9935713700e-03 0.0000e+00 0.0000e+00
       11  1    1    2    0    0 -9.2578743289e-03 +1.8398899839e-03 +9.4158284759e-02 9.4631586380e-02 5.1099893000e-04 0.0000e+00 1.0000e+00
<vert_displacement>
244.94865177418703
</vert_displacement>
</event>
<event>
 4   1200 +8.6263000e+09 2.24069900e-02 7.81665300e-03            nan
       50 -1    0    0    0    0 -2.6555563562e-02 -1.2591736050e-03 +1.5072611741e+01 1.5072636014e+01 4.9935713700e-03 0.0000e+00 0.0000e+00
       11 -1    0    0    0    0 -5.8681042297e-19 -2.7824534546e-20 +3.3306638929e-16 5.1100000000e-04 5.1099893000e-04 0.0000e+00 1.0000e+00
       50  1    1    2    0    0 -2.9993301032e-02 +2.0199677188e-02 +1.4590264032e+01 1.4590309699e+01 4.9935713700e-03 0.0000e+00 0.0000e+00
       11  1    1    2    0    0 +3.4377374694e-03 -2.1458850793e-02 +4.8234770883e-01 4.8283731593e-01 5.1099893000e-04 0.0000e+00 1.0000e+00
<vert_displacement>
31.155234236865937
</vert_displacement>
</event>
<event>
 4   1200 +8.6263000e+09 5.67318600e-03 7.81665300e-03            nan
       50 -1    0    0    0    0 -7.4285369960e-02 +4.1394605583e-02 +2.3458530223e+01 2.3458684895e+01 4.9935713700e-03 0.0000e+00 0.0000e+00
       11 -1    0    0    0    0 +2.6367632188e-18 -1.4693037608e-18 -8.3266179725e-16 5.1100000000e-04 5.1099893000e-04 0.0000e+00 1.0000e+00
       50  1    1    2    0    0 -7.1781485909e-02 +4.0337206483e-02 +2.3451444435e+01 2.3451589513e+01 4.9935713700e-03 0.0000e+00 0.0000e+00
       11  1    1    2    0    0 -2.5038840518e-03 +1.0573991002e-03 +7.0857881799e-03 7.6063816785e-03 5.1099893000e-04 0.0000e+00 1.0000e+00
<vert_displacement>
320.17366858580152
</vert_displacement>
</event>
<event>
 4   1200 +8.6263000e+09 6.31469500e-03 7.81665300e-03            nan
       50 -1    0    0    0    0 -2.0591851144e-02 -1.6020645101e-02 +6.8744655669e+00 6.8745168886e+00 4.9935713700e-03 0.0000e+00 0.0000e+00
       11 -1    0    0    0    0 +2.3486700627e-18 +1.8272863994e-18 -7.8408936434e-16 5.1100000000e-04 5.1099893000e-04 0.0000e+00 1.0000e+00
       50  1    1    2    0    0 -2.1821817224e-02 -1.2337270311e-02 +6.8598199210e+00 6.8598675413e+00 4.9935713700e-03 0.0000e+00 0.0000e+00
       11  1    1    2    0    0 +1.2299660795e-03 -3.6833747897e-03 +1.4645645914e-02 1.5160347310e-02 5.1099893000e-04 0.0000e+00 1.0000e+00
<vert_displacement>
480.27751023316580
</vert_displacement>
</event>
<event>
 4   1200 +8.6263000e+09 1.31402500e-02 7.81665300e-03            nan
       50 -1    0    0    0    0 +3.0238558381e-02 -1.3445561983e-02 +2.4888299665e+01 2.4888322167e+01 4.9935713700e-03 0.0000e+00 0.0000e+00
       11 -1    0    0    0    0 +3.0012744868e-18 -1.3345154101e-18 +2.4702440461e-15 5.1100000000e-04 5.1099893000e-04 0.0000e+00 1.0000e+00
       50  1    1    2    0    0 +2.8380329311e-02 -1.3294616378e-03 +2.4742904858e+01 2.4742921674e+01 4.9935713700e-03 0.0000e+00 0.0000e+00
       11  1    1    2    0    0 +1.8582290699e-03 -1.2116100345e-02 +1.4539480712e-01 1.4591149359e-01 5.1099893000e-04 0.0000e+00 1.0000e+00
<vert_displacement>
132.73776880797681
</vert_displacement>
</event>
<event>
 4   1200 +8.6263000e+09 8.12441000e-03 7.81665300e-03            nan
       50 -1    0    0    0    0 +1.5593857567e-02 -3.1980933910e-03 +7.9750091569e+00 7.9750266072e+00 4.9935713700e-03 0.0000e+00 0.0000e+00
       11 -1    0    0    0    0 -1.0175904397e-18 +2.0869430453e-19 -5.2041600608e-16 5.1100000000e-04 5.1099893000e-04 0.0000e+00 1.0000e+00
       50  1    1    2    0    0 +1.3175610824e-02 -9.1483119766e-03 +7.9346174270e+00 7.9346352113e+00 4.9935713700e-03 0.0000e+00 0.0000e+00
       11  1    1    2    0    0 +2.4182467432e-03 +5.9502185856e-03 +4.0391729978e-02 4.0902395884e-02 5.1099893000e-04 0.0000e+00 1.0000e+00
<vert_displacement>
109.26846575255212
</vert_displacement>
</event>
<event>
 4   1200 +8.6263000e+09 1.57197700e-02 7.81665300e-03            nan
       50 -1    0    0    0    0 +8.1358241423e-03 -3.5689933446e-04 +1.6969437423e+01 1.6969440112e+01 4.9935713700e-03 0.0000e+00 0.0000e+00
       11 -1    0    0    0    0 -1.6633908548e-19 +7.2969016865e-21 -3.4694465524e-16 5.1100000000e-04 5.1099893000e-04 0.0000e+00 1.0000e+00
       50  1    1    2    0    0 -6.7569463196e-03 -2.2270761132e-03 +1.6749182228e+01 1.6749184483e+01 4.9935713700e-03 0.0000e+00 0.0000e+00
       11  1    1    2    0    0 +1.4892770462e-02 +1.8701767787e-03 +2.2025519508e-01 2.2076662849e-01 5.1099893000e-04 0.0000e+00 1.0000e+00
<vert_displacement>
83.059193817683308
</vert_displacement>
</event>
<event>
 4   1200 +8.6263000e+09 4.83947800e-02 7.81665300e-03            nan
       50 -1    0    0    0    0 -4.8684694067e-03 -5.0700488279e-03 +1.0597955202e+01 1.0597958709e+01 4.9935713700e-03 0.0000e+00 0.0000e+00
       11 -1    0    0    0    0 -1.3387818251e-19 -1.3942142091e-19 +2.9143347986e-16 5.1100000000e-04 5.1099893000e-04 0.0000e+00 1.0000e+00
       50  1    1    2    0    0 -4.2014264370e-02 -3.2176656475e-02 +7.3052385219e+00 7.3054319060e+00 4.9935713700e-03 0.0000e+00 0.0000e+00
       11  1    1    2    0    0 +3.7145794963e-02 +2.7106607647e-02 +3.2927166800e+00 3.2930378034e+00 5.1099893000e-04 0.0000e+00 1.0000e+00
<vert_displacement>
93.508681360237887
</vert_displacement>
</event>
<event>
 4   1200 +8.6263000e+09 5.74041900e-03 7.81665300e-03            nan
       50 -1    0    0    0    0 +2.5884159327e-02 +7.9541626116e-02 +3.5968098778e+01 3.5968196389e+01 4.9935713700e-03 0.0000e+00 0.0000e+00
       11 -1    0    0    0    0 -1.5180260996e-18 -4.6648710096e-18 -2.1094180425e-15 5.1100000000e-04 5.1099893000e-04 0.0000e+00 1.0000e+00
       50  1    1    2    0    0 +2.7961040605e-02 +8.1442531026e-02 +3.5960247147e+01 3.5960350589e+01 4.9935713700e-03 0.0000e+00 0.0000e+00
       11  1    1    2    0    0 -2.0768812783e-03 -1.9009049092e-03 +7.8516314096e-03 8.3568002858e-03 5.1099893000e-04 0.0000e+00 1.0000e+00
<vert_displacement>
409.65691719071543
</vert_displacement>
</event>
<event>
 4   1200 +8.6263000e+09 6.44494200e-03 7.81665300e-03            nan
       50 -1    0    0    0    0 +3.8243817817e-02 -4.7572367025e-02 +3.0328341479e+01 3.0328403313e+01 4.9935713700e-03 0.0000e+00 0.0000e+00
       11 -1    0    0    0    0 -2.4149660457e-18 +3.0040319623e-18 -1.9151308388e-15 5.1100000000e-04 5.1099893000e-04 0.0000e+00 1.0000e+00
       50  1    1    2    0    0 +3.6799352134e-02 -5.1364439108e-02 +3.0312084178e+01 3.0312150446e+01 4.9935713700e-03 0.0000e+00 0.0000e+00
       11  1    1    2    0    0 +1.4444656828e-03 +3.7920720826e-03 +1.6257300976e-02 1.6763867296e-02 5.1099893000e-04 0.0000e+00 1.0000e+00
<vert_displacement>
491.11340565625335
</vert_displacement>
</event>
<event>
 4   1200 +8.6263000e+09 1.15393100e-02 7.81665300e-03            nan
       50 -1    0    0    0    0 -1.0152604744e-02 +9.0565693279e-03 +4.7099348749e+00 4.7099571716e+00 4.9935713700e-03 0.0000e+00 0.0000e+00
       11 -1    0    0    0    0 +8.3760457154e-19 -7.4718006488e-19 -3.8857643750e-16 5.1100000000e-04 5.1099893000e-04 0.0000e+00 1.0000e+00
       50  1    1    2    0    0 -2.0321164064e-02 +8.9612079153e-03 +4.6015026592e+00 4.6015589653e+00 4.9935713700e-03 0.0000e+00 0.0000e+00
       11  1    1    2    0    0 +1.0168559320e-02 +9.5361412636e-05 +1.0843221574e-01 1.0890920632e-01 5.1099893000e-04 0.0000e+00 1.0000e+00
<vert_displacement>
344.93703504057953
</vert_displacement>
</event>
<event>
 4   1200 +8.6263000e+09 7.48037200e-03 7.81665300e-03            nan
       50 -1    0    0    0    0 -1.9905027806e-02 -9.8502952895e-03 +1.2567246577e+01 1.2567267193e+01 4.9935713700e-03 0.0000e+00 0.0000e+00
       11 -1    0    0    0    0 +2.4178808865e-19 +1.1965238602e-19 -1.5265542751e-16 5.1100000000e-04 5.1099893000e-04 0.0000e+00 1.0000e+00
       50  1    1    2    0    0 -1.4345978784e-02 -1.0633056345e-02 +1.2536827213e+01 1.2536840925e+01 4.9935713700e-03 0.0000e+00 0.0000e+00
       11  1    1    2    0    0 -5.5590490215e-03 +7.8276105566e-04 +3.0419363744e-02 3.0937268002e-02 5.1099893000e-04 0.0000e+00 1.0000e+00
<vert_displacement>
272.16041863059411
</vert_displacement>
</event>
<event>
 4   1200 +8.6263000e+09 9.30652700e-03 7.81665300e-03            nan
       50 -1    0    0    0    0 +1.1870473260e-02 +2.3318369040e-02 +1.0630891393e+01 1.0630924767e+01 4.9935713700e-03 0.0000e+00 0.0000e+00
       11 -1    0    0    0    0 +3.1766629741e-19 +6.2402397886e-19 +2.8449378832e-16 5.1100000000e-04 5.1099893000e-04 0.0000e+00 1.0000e+00
       50  1    1    2    0    0 +6.0419782083e-03 +2.8522811801e-02 +1.0570188012e+01 1.0570229402e+01 4.9935713700e-03 0.0000e+00 0.0000e+00
       11  1    1    2    0    0 +5.8284950516e-03 -5.2044427609e-03 +6.0703380705e-02 6.1206365093e-02 5.1099893000e-04 0.0000e+00 1.0000e+00
<vert_displacement>
272.14889706018346
</vert_displacement>
</event>
<event>
 4   1200 +8.6263000e+09 1.81722600e-02 7.81665300e-03            nan
       50 -1    0    0    0    0 -1.0267359180e-01 -8.6984422257e-02 +4.6159802381e+01 4.6159998797e+01 4.9935713700e-03 0.0000e+00 0.0000e+00
       11 -1    0    0    0    0 +6.4823504515e-19 +5.4918065982e-19 -2.9143230559e-16 5.1100000000e-04 5.1099893000e-04 0.0000e+00 1.0000e+00
       50  1    1    2    0    0 -1.1593104805e-01 -7.5865366685e-02 +4.5859106331e+01 4.5859315890e+01 4.9935713700e-03 0.0000e+00 0.0000e+00
       11  1    1    2    0    0 +1.3257456252e-02 -1.1119055572e-02 +3.0069605007e-01 3.0119390630e-01 5.1099893000e-04 0.0000e+00 1.0000e+00
<vert_displacement>
334.52816896321946
</vert_displacement>
</event>
<event>
 4   1200 +8.6263000e+09 6.17106200e-03 7.81665300e-03            nan
       50 -1    0    0    0    0 -2.8798810331e-02 +7.5610018447e-03 +1.5207289560e+01 1.5207319528e+01 4.9935713700e-03 0.0000e+00 0.0000e+00
       11 -1    0    0    0    0 -8.2785198869e-19 +2.1734892316e-19 +4.3714947804e-16 5.1100000000e-04 5.1099893000e-04 0.0000e+00 1.0000e+00
       50  1    1    2    0    0 -3.1647266949e-02 +9.7666146737e-03 +1.5194408441e+01 1.5194445358e+01 4.9935713700e-03 0.0000e+00 0.0000e+00
       11  1    1    2    0    0 +2.8484566176e-03 -2.2056128290e-03 +1.2881118972e-02 1.3385170112e-02 5.1099893000e-04 0.0000e+00 1.0000e+00
<vert_displacement>
5.7945595362221116
</vert_displacement>
</event>
<event>
 4   1200 +8.6263000e+09 1.31310800e-02 7.81665300e-03            nan
       50 -1    0    0    0    0 -3.0770135685e-02 +1.1183843746e-02 +9.3347947018e+00 9.3348534504e+00 4.9935713700e-03 0.0000e+00 0.0000e+00
       11 -1    0    0    0    0 -3.4079913577e-18 +1.2386829627e-18 +1.0338888328e-15 5.1100000000e-04 5.1099893000e-04 0.0000e+00 1.0000e+00
       50  1    1    2    0    0 -2.2321079451e-02 +1.8410761189e-03 +9.1882009616e+00 9.1882296155e+00 4.9935713700e-03 0.0000e+00 0.0000e+00
       11  1    1    2    0    0 -8.4490562340e-03 +9.3427676274e-03 +1.4659374019e-01 1.4713483490e-01 5.1099893000e-04 0.0000e+00 1.0000e+00
<vert_displacement>
218.66767487078923
</vert_displacement>
</event>
<event>
 4   1200 +8.6263000e+09 1.95885500e-02 7.81665300e-03            nan
       50 -1    0    0    0    0 +7.6346600446e-02 -4.3725728075e-02 +3.8426929908e+01 3.8427030953e+01 4.9935713700e-03 0.0000e+00 0.0000e+00
       11 -1    0    0    0    0 -7.9959692961e-18 +4.5795042228e-18 -4.0245479156e-15 5.1100000000e-04 5.1099893000e-04 0.0000e+00 1.0000e+00
       50  1    1    2    0    0 +6.1123706645e-02 -3.1158055712e-02 +3.8072647163e+01 3.8072709306e+01 4.9935713700e-03 0.0000e+00 0.0000e+00
       11  1    1    2    0    0 +1.5222893801e-02 -1.2567672363e-02 +3.5428274491e-01 3.5483264695e-01 5.1099893000e-04 0.0000e+00 1.0000e+00
<vert_displacement>
33.182104477974228
</vert_displacement>
</event>
<event>
 4   1200 +8.6263000e+09 1.20115300e-02 7.81665300e-03            nan
       50 -1    0    0    0    0 -5.8929558968e-02 +4.2425351575e-02 +2.5173829200e+01 2.5173934419e+01 4.9935713700e-03 0.0000e+00 0.0000e+00
       11 -1    0    0    0    0 -2.1441061437e-18 +1.5436134014e-18 +9.1593018503e-16 5.1100000000e-04 5.1099893000e-04 0.0000e+00 1.0000e+00
       50  1    1    2    0    0 -5.6958651811e-02 +3.1435817581e-02 +2.5056530117e+01 2.5056615073e+01 4.9935713700e-03 0.0000e+00 0.0000e+00
       11  1    1    2    0    0 -1.9709071566e-03 +1.0989533994e-02 +1.1729908342e-01 1.1783034594e-01 5.1099893000e-04 0.0000e+00 1.0000e+00
<vert_displacement>
123.13584798915008
</vert_displacement>
</event>
<event>
 4   1200 +8.6263000e+09 1.46755700e-02 7.81665300e-03            nan
       50 -1    0    0    0    0 -1.3410801549e-02 -1.3059043240e-02 +6.6163838137e+00 6.6164121769e+00 4.9935713700e-03 0.0000e+00 0.0000e+00
       11 -1    0    0    0    0 -2.8128887116e-19 -2.7391081122e-19 +1.3877732269e-16 5.1100000000e-04 5.1099893000e-04 0.0000e+00 1.0000e+00
       50  1    1    2    0    0 -2.6246803339e-02 -8.7388308347e-03 +6.4244254847e+00 6.4244869838e+00 4.9935713700e-03 0.0000e+00 0.0000e+00
       11  1    1    2    0    0 +1.2836001790e-02 -4.3202124052e-03 +1.9195832908e-01 1.9243619307e-01 5.1099893000e-04 0.0000e+00 1.0000e+00
<vert_displacement>
392.36809876244610
</vert_displacement>
</event>
<event>
 4   1200 +8.6263000e+09 1.18796600e-02 7.81665300e-03            nan
       50 -1    0    0    0    0 +1.3344943354e-02 +6.9890637496e-03 +1.1308807590e+01 1.1308818726e+01 4.9935713700e-03 0.0000e+00 0.0000e+00
       11 -1    0    0    0    0 +2.6202320822e-19 +1.3722777666e-19 +2.2204440792e-16 5.1100000000e-04 5.1099893000e-04 0.0000e+00 1.0000e+00
       50  1    1    2    0    0 +4.9816404304e-03 -4.5713470913e-05 +1.1193957999e+01 1.1193960221e+01 4.9935713700e-03 0.0000e+00 0.0000e+00
       11  1    1    2    0    0 +8.3633029239e-03 +7.0347772205e-03 +1.1484959111e-01 1.1536950474e-01 5.1099893000e-04 0.0000e+00 1.0000e+00
<vert_displacement>
450.04139536504306
</vert_displacement>
</event>
<event>
 4   1200 +8.6263000e+09 5.52033800e-03 7.81665300e-03            nan
       50 -1    0    0    0    0 -1.8424046588e-02 +1.0097534926e-02 +5.3907810337e+00 5.3908242871e+00 4.9935713700e-03 0.0000e+00 0.0000e+00
       11 -1    0    0    0    0 +9.0116408892e-19 -4.9389453170e-19 -2.6367596584e-16 5.1100000000e-04 5.1099893000e-04 0.0000e+00 1.0000e+00
       50  1    1    2    0    0 -1.6347215070e-02 +1.1228335992e-02 +5.3853608161e+00 5.3853996474e+00 4.9935713700e-03 0.0000e+00 0.0000e+00
       11  1    1    2    0    0 -2.0768315180e-03 -1.1308010667e-03 +5.4202175907e-03 5.9356397165e-03 5.1099893000e-04 0.0000e+00 1.0000e+00
<vert_displacement>
29.584569156693423
</vert_displacement>
</event>
<event>
 4   1200 +8.6263000e+09 7.76233900e-03 7.81665300e-03            nan
       50 -1    0    0    0    0 +3.0371069489e-02 +6.9627625418e-03 +9.9283121163e+00 9.9283622666e+00 4.9935713700e-03 0.0000e+00 0.0000e+00
       11 -1    0    0    0    0 +3.9480779294e-18 +9.0512219627e-19 +1.2906279101e-15 5.1100000000e-04 5.1099893000e-04 0.0000e+00 1.0000e+00
       50  1    1    2    0    0 +3.1628341594e-02 +1.2722844842e-02 +9.8936229548e+00 9.8936829508e+00 4.9935713700e-03 0.0000e+00 0.0000e+00
       11  1    1    2    0    0 -1.2572721050e-03 -5.7600823002e-03 +3.4689161483e-02 3.5190315793e-02 5.1099893000e-04 0.0000e+00 1.0000e+00
<vert_displacement>
246.21163861783242
</vert_displacement>
</event>
<event>
 4   1200 +8.6263000e+09 1.45158200e-02 7.81665300e-03            nan
       50 -1    0    0    0    0 +8.5896044835e-03 +1.8562569865e-02 +1.4711097683e+01 1.4711112750e+01 4.9935713700e-03 0.0000e+00 0.0000e+00
       11 -1    0    0    0    0 -8.9538577119e-19 -1.9349739520e-18 -1.5334940706e-15 5.1100000000e-04 5.1099893000e-04 0.0000e+00 1.0000e+00
       50  1    1    2    0    0 +1.3295451257e-02 +3.1081944283e-02 +1.4526990993e+01 1.4527031187e+01 4.9935713700e-03 0.0000e+00 0.0000e+00
       11  1    1    2    0    0 -4.7058467733e-03 -1.2519374418e-02 +1.8410669042e-01 1.8459256298e-01 5.1099893000e-04 0.0000e+00 1.0000e+00
<vert_displacement>
446.05390626994614
</vert_displacement>
</event>
<event>
 4   1200 +8.6263000e+09 2.28260300e-02 7.81665300e-03            nan
       50 -1    0    0    0    0 +2.2634247915e-03 -7.9899510775e-03 +3.6737126605e+00 3.6737254402e+00 4.9935713700e-03 0.0000e+00 0.0000e+00
       11 -1    0    0    0    0 -1.2825410542e-19 +4.5274048056e-19 -2.0816628528e-16 5.1100000000e-04 5.1099893000e-04 0.0000e+00 1.0000e+00
       50  1    1    2    0    0 +2.1653900323e-02 +3.5693001914e-03 +3.0971620003e+00 3.0972437784e+00 4.9935713700e-03 0.0000e+00 0.0000e+00
       11  1    1    2    0    0 -1.9390475532e-02 -1.1559251269e-02 +5.7655066018e-01 5.7699266174e-01 5.1099893000e-04 0.0000e+00 1.0000e+00
<vert_displacement>
372.97561688056550
</vert_displacement>
</event>
<event>
 4   1200 +8.6263000e+09 2.12517500e-02 7.81665300e-03            nan
       50 -1    0    0    0    0 -3.7684377059e-02 +4.5838836684e-02 +2.3906196745e+01 2.3906270914e+01 4.9935713700e-03 0.0000e+00 0.0000e+00
       11 -1    0    0    0    0 +1.7719635130e-18 -2.1553957481e-18 -1.1240973494e-15 5.1100000000e-04 5.1099893000e-04 0.0000e+00 1.0000e+00
       50  1    1    2    0    0 -3.2634133627e-02 +6.5210737340e-02 +2.3481074998e+01 2.3481188756e+01 4.9935713700e-03 0.0000e+00 0.0000e+00
       11  1    1    2    0    0 -5.0502434320e-03 -1.9371900656e-02 +4.2512174673e-01 4.2559315802e-01 5.1099893000e-04 0.0000e+00 1.0000e+00
<vert_displacement>
485.95888120998916
</vert_displacement>
</event>
<event>
 4   1200 +8.6263000e+09 5.16569300e-03 7.81665300e-03            nan
       50 -1    0    0    0    0 -2.8598852001e-02 -1.1777014133e-03 +2.2713538271e+01 2.2713556855e+01 4.9935713700e-03 0.0000e+00 0.0000e+00
       11 -1    0    0    0    0 -2.1842066159e-18 -8.9945680974e-20 +1.7347220986e-15 5.1100000000e-04 5.1099893000e-04 0.0000e+00 1.0000e+00
       50  1    1    2    0    0 -2.9237237257e-02 -2.3344787140e-03 +2.2711826250e+01 2.2711845737e+01 4.9935713700e-03 0.0000e+00 0.0000e+00
       11  1    1    2    0    0 +6.3838525597e-04 +1.1567773007e-03 +1.7120208561e-03 2.2221171834e-03 5.1099893000e-04 0.0000e+00 1.0000e+00
<vert_displacement>
278.47189960843377
</vert_displacement>
</event>
<event>
 4   1200 +8.6263000e+09 3.64036800e-02 7.81665300e-03            nan
       50 -1    0    0    0    0 +1.9545021618e-02 +1.1179316655e-02 +5.7820014765e+00 5.7820474743e+00 4.9935713700e-03 0.0000e+00 0.0000e+00
       11 -1    0    0    0    0 -1.1727755828e-19 -6.7080148907e-20 -3.4694206454e-17 5.1100000000e-04 5.1099893000e-04 0.0000e+00 1.0000e+00
       50  1    1    2    0    0 -6.7220272431e-04 -2.5804515027e-02 +3.8839852634e+00 3.8840742510e+00 4.9935713700e-03 0.0000e+00 0.0000e+00
       11  1    1    2    0    0 +2.0217224342e-02 +3.6983831682e-02 +1.8980162131e+00 1.8984842233e+00 5.1099893000e-04 0.0000e+00 1.0000e+00
<vert_displacement>
189.44794534487067
</vert_displacement>
</event>
<event>
 4   1200 +8.6263000e+09 2.75948900e-02 7.81665300e-03            nan
       50 -1    0    0    0    0 -9.2030296570e-03 -1.7115569791e-03 +3.3367426879e+00 3.3367595548e+00 4.9935713700e-03 0.0000e+00 0.0000e+00
       11 -1    0    0    0    0 -1.3396602839e-19 -2.4914674776e-20 +4.8572066193e-17 5.1100000000e-04 5.1099893000e-04 0.0000e+00 1.0000e+00
       50  1    1    2    0    0 +2.0351418280e-02 +1.3291133904e-02 +1.0839460656e+00 1.0842300694e+00 4.9935713700e-03 0.0000e+00 0.0000e+00
       11  1    1    2    0    0 -2.9554447937e-02 -1.5002690883e-02 +2.2527966223e+00 2.2530404854e+00 5.1099893000e-04 0.0000e+00 1.0000e+00
<vert_displacement>
479.69327384283298
</vert_displacement>
</event>
<event>
 4   1200 +8.6263000e+09 8.12308900e-03 7.81665300e-03            nan
       50 -1    0    0    0    0 +7.7498213631e-02 -5.6424617528e-02 +3.8209699950e+01 3.8209820530e+01 4.9935713700e-03 0.0000e+00 0.0000e+00
       11 -1    0    0    0    0 +2.5051108461e-18 -1.8239119940e-18 +1.2351192277e-15 5.1100000000e-04 5.1099893000e-04 0.0000e+00 1.0000e+00
       50  1    1    2    0    0 +7.5211287279e-02 -5.0349848658e-02 +3.8169505376e+01 3.8169613011e+01 4.9935713700e-03 0.0000e+00 0.0000e+00
       11  1    1    2    0    0 +2.2869263525e-03 -6.0747688698e-03 +4.0194574133e-02 4.0718518620e-02 5.1099893000e-04 0.0000e+00 1.0000e+00
<vert_displacement>
28.954680865233883
</vert_displacement>
</event>
<event>
 4   1200 +8.6263000e+09 2.36973300e-02 7.81665300e-03            nan
       50 -1    0    0    0    0 -5.1705619930e-02 +4.0548109578e-02 +2.0508856778e+01 2.0508962648e+01 4.9935713700e-03 0.0000e+00 0.0000e+00
       11 -1    0    0    0    0 -2.5191081184e-18 +1.9755119881e-18 +9.9919559377e-16 5.1100000000e-04 5.1099893000e-04 0.0000e+00 1.0000e+00
       50  1    1    2    0    0 -5.2925769601e-02 +1.6460792790e-02 +1.9969612201e+01 1.9969689744e+01 4.9935713700e-03 0.0000e+00 0.0000e+00
       11  1    1    2    0    0 +1.2201496710e-03 +2.4087316788e-02 +5.3924457713e-01 5.3978390368e-01 5.1099893000e-04 0.0000e+00 1.0000e+00
<vert_displacement>
93.706842898981733
</vert_displacement>
</event>
<event>
 4   1200 +8.6263000e+09 1.75518100e-02 7.81665300e-03            nan
       50 -1    0    0    0    0 -5.2793557579e-02 +5.3995523319e-03 +4.8927048838e+01 4.8927077873e+01 4.9935713700e-03 0.0000e+00 0.0000e+00
       11 -1    0    0    0    0 -2.8900756042e-18 +2.9558747665e-19 +2.6784114714e-15 5.1100000000e-04 5.1099893000e-04 0.0000e+00 1.0000e+00
       50  1    1    2    0    0 -6.9081146625e-02 +8.1902020859e-03 +4.8648405094e+01 4.8648455088e+01 4.9935713700e-03 0.0000e+00 0.0000e+00
       11  1    1    2    0    0 +1.6287589046e-02 -2.7906497540e-03 +2.7864374373e-01 2.7913378571e-01 5.1099893000e-04 0.0000e+00 1.0000e+00
<vert_displacement>
353.74030417557606
</vert_displacement>
</event>
<event>
 4   1200 +8.6263000e+09 2.27712300e-02 7.81665300e-03            nan
       50 -1    0    0    0    0 -8.4212332054e-03 -4.2665472473e-03 +4.2761300567e+00 4.2761433931e+00 4.9935713700e-03 0.0000e+00 0.0000e+00
       11 -1    0    0    0    0 +9.5655956214e-19 +4.8463288774e-19 -4.8572138960e-16 5.1100000000e-04 5.1099893000e-04 0.0000e+00 1.0000e+00
       50  1    1    2    0    0 +1.1394404026e-02 -1.5674673611e-02 +3.7205255197e+00 3.7205793374e+00 4.9935713700e-03 0.0000e+00 0.0000e+00
       11  1    1    2    0    0 -1.9815637232e-02 +1.1408126364e-02 +5.5560453701e-01 5.5607505563e-01 5.1099893000e-04 0.0000e+00 1.0000e+00
<vert_displacement>
255.18667300467953
</vert_displacement>
</event>
<event>
 4   1200 +8.6263000e+09 9.83705000e-03 7.81665300e-03            nan
       50 -1    0    0    0    0 -3.0647606263e-02 -3.4421332637e-02 +1.7698168602e+01 1.7698229315e+01 4.9935713700e-03 0.0000e+00 0.0000e+00
       11 -1    0    0    0    0 -2.0907699732e-18 -2.3482123889e-18 +1.2073634455e-15 5.1100000000e-04 5.1099893000e-04 0.0000e+00 1.0000e+00
       50  1    1    2    0    0 -2.3001814559e-02 -3.8186309179e-02 +1.7627604972e+01 1.7627662047e+01 4.9935713700e-03 0.0000e+00 0.0000e+00
       11  1    1    2    0    0 -7.6457917033e-03 +3.7649765422e-03 +7.0563629913e-02 7.1078267885e-02 5.1099893000e-04 0.0000e+00 1.0000e+00
<vert_displacement>
107.12149552899552
</vert_displacement>
</event>
<event>
 4   1200 +8.6263000e+09 9.49708000e-03 7.81665300e-03            nan
       50 -1    0    0    0    0 -4.5734695417e-03 +1.5368733395e-04 +2.4524673027e+00 2.4524766557e+00 4.9935713700e-03 0.0000e+00 0.0000e+00
       11 -1    0    0    0    0 -6.4699669277e-19 +2.1741742430e-20 +3.4694409124e-16 5.1100000000e-04 5.1099893000e-04 0.0000e+00 1.0000e+00
       50  1    1    2    0    0 -4.6330264139e-04 -6.8758460245e-03 +2.3868336395e+00 2.3868488118e+00 4.9935713700e-03 0.0000e+00 0.0000e+00
       11  1    1    2    0    0 -4.1101669004e-03 +7.0295333584e-03 +6.5633663163e-02 6.6138843891e-02 5.1099893000e-04 0.0000e+00 1.0000e+00
<vert_displacement>
347.44907304106755
</vert_displacement>
</event>
<event>
 4   1200 +8.6263000e+09 1.38869100e-02 7.81665300e-03            nan
       50 -1    0    0    0    0 -2.0826280976e-02 +9.1436897413e-03 +8.2310745124e+00 8.2311074531e+00 4.9935713700e-03 0.0000e+00 0.0000e+00
       11 -1    0    0    0    0 +2.1419217944e-18 -9.4040161851e-19 -8.4654182420e-16 5.1100000000e-04 5.1099893000e-04 0.0000e+00 1.0000e+00
       50  1    1    2    0    0 -9.7793764027e-03 +1.5363306864e-03 +8.0633759326e+00 8.0633835555e+00 4.9935713700e-03 0.0000e+00 0.0000e+00
       11  1    1    2    0    0 -1.1046904574e-02 +7.6073590549e-03 +1.6769857975e-01 1.6823489763e-01 5.1099893000e-04 0.0000e+00 1.0000e+00
<vert_displacement>
357.63257193933595
</vert_displacement>
</event>
<event>
 4   1200 +8.6263000e+09 2.36740100e-02 7.81665300e-03            nan
       50 -1    0    0    0    0 +1.0604695384e-02 +5.9618774574e-02 +3.2471037953e+01 3.2471094800e+01 4.9935713700e-03 0.0000e+00 0.0000e+00
       11 -1    0    0    0    0 +9.5178928031e-20 +5.3508854793e-19 +2.9143303719e-16 5.1100000000e-04 5.1099893000e-04 0.0000e+00 1.0000e+00
       50  1    1    2    0    0 -2.9727723001e-03 +3.9776140264e-02 +3.1938327145e+01 3.1938352442e+01 4.9935713700e-03 0.0000e+00 0.0000e+00
       11  1    1    2    0    0 +1.3577467684e-02 +1.9842634311e-02 +5.3271080777e-01 5.3325335780e-01 5.1099893000e-04 0.0000e+00 1.0000e+00
<vert_displacement>
0.70626079679310350
</vert_displacement>
</event>
<event>
 4   1200 +8.6263000e+09 3.23458300e-02 7.81665300e-03            nan
       50 -1    0    0    0    0 -3.1436461804e-02 -8.6373356402e-03 +1.3517120505e+01 1.3517160742e+01 4.9935713700e-03 0.0000e+00 0.0000e+00
       11 -1    0    0    0    0 -7.7460392951e-19 -2.1282656328e-19 +3.3306593865e-16 5.1100000000e-04 5.1099893000e-04 0.0000e+00 1.0000e+00
       50  1    1    2    0    0 -6.0852671474e-02 -8.8860578423e-03 +1.2430122190e+01 1.2430275323e+01 4.9935713700e-03 0.0000e+00 0.0000e+00
       11  1    1    2    0    0 +2.9416209670e-02 +2.4872220216e-04 +1.0869983144e+00 1.0873964189e+00 5.1099893000e-04 0.0000e+00 1.0000e+00
<vert_displacement>
221.78782955353790
</vert_displacement>
</event>
<event>
 4   1200 +8.6263000e+09 1.15981900e-02 7.81665300e-03            nan
       50 -1    0    0    0    0 +1.7629802414e-02 +2.8190202134e-02 +2.6640510538e+01 2.6640531754e+01 4.9935713700e-03 0.0000e+00 0.0000e+00
       11 -1    0    0    0    0 +1.4602322320e-18 +2.3349236036e-18 +2.2065665429e-15 5.1100000000e-04 5.1099893000e-04 0.0000e+00 1.0000e+00
       50  1    1    2    0    0 +1.6427342777e-02 +3.8483131651e-02 +2.6532839397e+01 2.6532872860e+01 4.9935713700e-03 0.0000e+00 0.0000e+00
       11  1    1    2    0    0 +1.2024596365e-03 -1.0292929517e-02 +1.0767114054e-01 1.0816989384e-01 5.1099893000e-04 0.0000e+00 1.0000e+00
<vert_displacement>
72.330195910247198
</vert_displacement>
</event>
<event>
 4   1200 +8.6263000e+09 3.44224800e-02 7.81665300e-03            nan
       50 -1    0    0    0    0 -1.5759868592e-02 +1.5658251045e-02 +7.8424996743e+00 7.8425327307e+00 4.9935713700e-03 0.0000e+00 0.0000e+00
       11 -1    0    0    0    0 -9.4819028206e-19 +9.4207647664e-19 +4.7184289228e-16 5.1100000000e-04 5.1099893000e-04 0.0000e+00 1.0000e+00
       50  1    1    2    0    0 -2.3389788026e-02 -1.9524845400e-02 +6.4646299989e+00 6.4647037256e+00 4.9935713700e-03 0.0000e+00 0.0000e+00
       11  1    1    2    0    0 +7.6299194347e-03 +3.5183096445e-02 +1.3778696755e+00 1.3783400051e+00 5.1099893000e-04 0.0000e+00 1.0000e+00
<vert_displacement>
380.99787515111569
</vert_displacement>
</event>
<event>
 4   1200 +8.6263000e+09 1.01071200e-02 7.81665300e-03            nan
       50 -1    0    0    0    0 +2.1225338546e-02 +7.8904023294e-04 +1.2377546111e+01 1.2377565342e+01 4.9935713700e-03 0.0000e+00 0.0000e+00
       11 -1    0    0    0    0 +7.1393871167e-20 +2.6540277138e-21 +4.1633302125e-17 5.1100000000e-04 5.1099893000e-04 0.0000e+00 1.0000e+00
       50  1    1    2    0    0 +2.9600476318e-02 -1.4235830936e-03 +1.2301504794e+01 1.2301541502e+01 4.9935713700e-03 0.0000e+00 0.0000e+00
       11  1    1    2    0    0 -8.3751377724e-03 +2.2126233266e-03 +7.6041317083e-02 7.6534839507e-02 5.1099893000e-04 0.0000e+00 1.0000e+00
<vert_displacement>
93.455295772272592
</vert_displacement>
</event>
<event>
 4   1200 +8.6263000e+09 9.86549300e-03 7.81665300e-03            nan
       50 -1    0    0    0    0 -1.5048421856e-02 +3.7528070329e-02 +1.7020848038e+01 1.7020896794e+01 4.9935713700e-03 0.0000e+00 0.0000e+00
       11 -1    0    0    0    0 -1.2024163035e-18 +2.9986110195e-18 +1.3600193679e-15 5.1100000000e-04 5.1099893000e-04 0.0000e+00 1.0000e+00
       50  1    1    2    0    0 -2.2483897209e-02 +4.1391986889e-02 +1.6949699068e+01 1.6949765257e+01 4.9935713700e-03 0.0000e+00 0.0000e+00
       11  1    1    2    0    0 +7.4354753531e-03 -3.8639165594e-03 +7.1148969664e-02 7.1642537288e-02 5.1099893000e-04 0.0000e+00 1.0000e+00
<vert_displacement>
342.06492853452500
</vert_displacement>
</event>
<event>
 4   1200 +8.6263000e+09 7.64031800e-03 7.81665300e-03            nan
       50 -1    0    0    0    0 -3.5316699263e-02 -2.2078580758e-02 +1.1959055263e+01 1.1959128833e+01 4.9935713700e-03 0.0000e+00 0.0000e+00
       11 -1    0    0    0    0 -5.7375816517e-19 -3.5869054158e-19 +1.9428785102e-16 5.1100000000e-04 5.1099893000e-04 0.0000e+00 1.0000e+00
       50  1    1    2    0    0 -3.0122026383e-02 -2.4747704008e-02 +1.1926254990e+01 1.1926319751e+01 4.9935713700e-03 0.0000e+00 0.0000e+00
       11  1    1    2    0    0 -5.1946728801e-03 +2.6691232497e-03 +3.2800273006e-02 3.3320082149e-02 5.1099893000e-04 0.0000e+00 1.0000e+00
<vert_displacement>
186.17798049400142
</vert_displacement>
</event>
<event>
 4   1200 +8.6263000e+09 1.70526400e-02 7.81665300e-03            nan
       50 -1    0    0    0    0 -3.9730428819e-02 -6.3155536971e-02 +3.2676247636e+01 3.2676333203e+01 4.9935713700e-03 0.0000e+00 0.0000e+00
       11 -1    0    0    0    0 +7.9475101564e-18 +1.2633371610e-17 -6.5364210172e-15 5.1099999999e-04 5.1099893000e-04 0.0000e+00 1.0000e+00
       50  1    1    2    0    0 -5.5638651793e-02 -6.1055453124e-02 +3.2413987574e+01 3.2414093212e+01 4.9935713700e-03 0.0000e+00 0.0000e+00
       11  1    1    2    0    0 +1.5908222974e-02 -2.1000838469e-03 +2.6226006192e-01 2.6275099069e-01 5.1099893000e-04 0.0000e+00 1.0000e+00
<vert_displacement>
60.472225094497851
</vert_displacement>
</event>
<event>
 4   1200 +8.6263000e+09 1.44920000e-02 7.81665300e-03            nan
       50 -1    0    0    0    0 -3.0856727251e-02 -4.1237523313e-02 +1.6028086540e+01 1.6028170068e+01 4.9935713700e-03 0.0000e+00 0.0000e+00
       11 -1    0    0    0    0 +4.2747051692e-19 +5.7127981408e-19 -2.2204345855e-16 5.1100000000e-04 5.1099893000e-04 0.0000e+00 1.0000e+00
       50  1    1    2    0    0 -2.2678943233e-02 -2.9637466301e-02 +1.5844930145e+01 1.5844974880e+01 4.9935713700e-03 0.0000e+00 0.0000e+00
       11  1    1    2    0    0 -8.1777840186e-03 -1.1600057012e-02 +1.8315639492e-01 1.8370618823e-01 5.1099893000e-04 0.0000e+00 1.0000e+00
<vert_displacement>
419.24639428562631
</vert_displacement>
</event>
<event>
 4   1200 +8.6263000e+09 6.21866200e-03 7.81665300e-03            nan
       50 -1    0    0    0    0 +1.8197498236e-02 +9.7164720430e-03 +7.3649662493e+00 7.3649968329e+00 4.9935713700e-03 0.0000e+00 0.0000e+00
       11 -1    0    0    0    0 -2.2288088360e-19 -1.1900624175e-19 -9.0205266901e-17 5.1100000000e-04 5.1099893000e-04 0.0000e+00 1.0000e+00
       50  1    1    2    0    0 +1.6175391269e-02 +6.5713339255e-03 +7.3515093856e+00 7.3515318137e+00 4.9935713700e-03 0.0000e+00 0.0000e+00
       11  1    1    2    0    0 +2.0221069669e-03 +3.1451381175e-03 +1.3456863755e-02 1.3976019190e-02 5.1099893000e-04 0.0000e+00 1.0000e+00
<vert_displacement>
262.77248821223606
</vert_displacement>
</event>
<event>
 4   1200 +8.6263000e+09 1.02306900e-02 7.81665300e-03            nan
       50 -1    0    0    0    0 -4.6488286486e-02 -3.0634071691e-02 +2.6035329325e+01 2.6035389331e+01 4.9935713700e-03 0.0000e+00 0.0000e+00
       11 -1    0    0    0    0 -4.7577425934e-18 -3.1351774546e-18 +2.6645291670e-15 5.1100000000e-04 5.1099893000e-04 0.0000e+00 -1.0000e+00
       50  1    1    2    0    0 -5.4264362525e-02 -3.4673702050e-02 +2.5957058648e+01 2.5957139008e+01 4.9935713700e-03 0.0000e+00 0.0000e+00
       11  1    1    2    0    0 +7.7760760398e-03 +4.0396303593e-03 +7.8270676918e-02 7.8761322724e-02 5.1099893000e-04 0.0000e+00 -1.0000e+00
<vert_displacement>
286.79132467924444
</vert_displacement>
</event>
<event>
 4   1200 +8.6263000e+09 8.11960700e-02 7.81665300e-03            nan
       50 -1    0    0    0    0 +1.1018084563e-02 -1.5668924538e-02 +4.9140497405e+01 4.9140501392e+01 4.9935713700e-03 0.0000e+00 0.0000e+00
       11 -1    0    0    0    0 -8.3391456067e-19 +1.1859179558e-18 -3.7192468499e-15 5.1100000000e-04 5.1099893000e-04 0.0000e+00 1.0000e+00
       50  1    1    2    0    0 +1.4759535324e-03 +6.7418102339e-02 +4.1536856719e+01 4.1536911758e+01 4.9935713700e-03 0.0000e+00 0.0000e+00
       11  1    1    2    0    0 +9.5421310310e-03 -8.3087026877e-02 +7.6036406856e+00 7.6041006334e+00 5.1099893000e-04 0.0000e+00 1.0000e+00
<vert_displacement>
87.539418731799387
</vert_displacement>
</event>
<event>
 4   1200 +8.6263000e+09 9.33076800e-03 7.81665300e-03            nan
       50 -1    0    0    0    0 +8.6814378301e-04 -1.8564728105e-02 +8.3841424230e+00 8.3841645086e+00 4.9935713700e-03 0.0000e+00 0.0000e+00
       11 -1    0    0    0    0 -1.5088340882e-20 +3.2265501581e-19 -1.4571641398e-16 5.1100000000e-04 5.1099893000e-04 0.0000e+00 1.0000e+00
       50  1    1    2    0    0 -6.0153690278e-03 -2.2280345817e-02 +8.3228923113e+00 8.3229258053e+00 4.9935713700e-03 0.0000e+00 0.0000e+00
       11  1    1    2    0    0 +6.8835128109e-03 +3.7156177114e-03 +6.1250111638e-02 6.1749703313e-02 5.1099893000e-04 0.0000e+00 1.0000e+00
<vert_displacement>
51.979494395248842
</vert_displacement>
</event>
<event>
 4   1200 +8.6263000e+09 2.43537400e-02 7.81665300e-03            nan
       50 -1    0    0    0    0 -4.0646051248e-02 +3.0433357524e-03 +1.2448138196e+01 1.2448205929e+01 4.9935713700e-03 0.0000e+00 0.0000e+00
       11 -1    0    0    0    0 +4.5313945082e-20 -3.3928400156e-21 -1.3877713413e-17 5.1100000000e-04 5.1099893000e-04 0.0000e+00 1.0000e+00
       50  1    1    2    0    0 -1.8750210202e-02 -1.0080859537e-02 +1.1864858274e+01 1.1864878423e+01 4.9935713700e-03 0.0000e+00 0.0000e+00
       11  1    1    2    0    0 -2.1895841046e-02 +1.3124195289e-02 +5.8327992164e-01 5.8383850547e-01 5.1099893000e-04 0.0000e+00 1.0000e+00
<vert_displacement>
473.26863197907272
</vert_displacement>
</event>
<event>
 4   1200 +8.6263000e+09 2.00226800e-02 7.81665300e-03            nan
       50 -1    0    0    0    0 +3.5568557135e-02 +3.7694673737e-02 +1.7402795990e+01 1.7402873878e+01 4.9935713700e-03 0.0000e+00 0.0000e+00
       11 -1    0    0    0    0 +9.0764394404e-19 +9.6189851643e-19 +4.4408724057e-16 5.1100000000e-04 5.1099893000e-04 0.0000e+00 1.0000e+00
       50  1    1    2    0    0 +4.4273602903e-02 +1.9962070608e-02 +1.7026789220e+01 1.7026859215e+01 4.9935713700e-03 0.0000e+00 0.0000e+00
       11  1    1    2    0    0 -8.7050457681e-03 +1.7732603130e-02 +3.7600676959e-01 3.7652566304e-01 5.1099893000e-04 0.0000e+00 1.0000e+00
<vert_displacement>
2.1280803556445687
</vert_displacement>
</event>
<event>
 4   1200 +8.6263000e+09 6.73069700e-03 7.81665300e-03            nan
       50 -1    0    0    0    0 +2.1115059220e-02 +1.1991112972e-02 +7.6496473064e+00 7.6496874760e+00 4.9935713700e-03 0.0000e+00 0.0000e+00
       11 -1    0    0    0    0 -1.7046254081e-18 -9.6804634221e-19 -6.1755844612e-16 5.1100000000e-04 5.1099893000e-04 0.0000e+00 1.0000e+00
       50  1    1    2    0    0 +1.7529410597e-02 +9.1487530724e-03 +7.6296797625e+00 7.6297070189e+00 4.9935713700e-03 0.0000e+00 0.0000e+00
       11  1    1    2    0    0 +3.5856486229e-03 +2.8423598995e-03 +1.9967543924e-02 2.0491457150e-02 5.1099893000e-04 0.0000e+00 1.0000e+00
<vert_displacement>
228.47016521945548
</vert_displacement>
</event>
<event>
 4   1200 +8.6263000e+09 1.41170900e-02 7.81665300e-03            nan
       50 -1    0    0    0    0 +2.6450314630e-02 +4.5960740772e-03 +1.1132484979e+01 1.1132518470e+01 4.9935713700e-03 0.0000e+00 0.0000e+00
       11 -1    0    0    0    0 +1.6816200648e-18 +2.9220258797e-19 +7.0776512015e-16 5.1100000000e-04 5.1099893000e-04 0.0000e+00 1.0000e+00
       50  1    1    2    0    0 +1.9756170449e-02 -7.0896094040e-03 +1.0959190137e+01 1.0959211376e+01 4.9935713700e-03 0.0000e+00 0.0000e+00
       11  1    1    2    0    0 +6.6941441808e-03 +1.1685683481e-02 +1.7329484159e-01 1.7381809459e-01 5.1099893000e-04 0.0000e+00 1.0000e+00
<vert_displacement>
98.246979293579869
</vert_displacement>
</event>
<event>
 4   1200 +8.6263000e+09 2.26905300e-02 7.81665300e-03            nan
       50 -1    0    0    0    0 -1.2361237483e-03 -1.1736157488e-02 +4.6631121817e+00 4.6631297880e+00 4.9935713700e-03 0.0000e+00 0.0000e+00
       11 -1    0    0    0    0 +2.0233342272e-20 +1.9210187630e-19 -7.6327588520e-17 5.1100000000e-04 5.1099893000e-04 0.0000e+00 1.0000e+00
       50  1    1    2    0    0 +2.0787565945e-02 -1.3716329056e-02 +4.1201268719e+00 4.1202051693e+00 4.9935713700e-03 0.0000e+00 0.0000e+00
       11  1    1    2    0    0 -2.2023689693e-02 +1.9801715689e-03 +5.4298530977e-01 5.4343561876e-01 5.1099893000e-04 0.0000e+00 1.0000e+00
<vert_displacement>
292.72462288943149
</vert_displacement>
</event>
<event>
 4   1200 +8.6263000e+09 8.15614200e-03 7.81665300e-03            nan
       50 -1    0    0    0    0 -4.2469725174e-02 -5.2402285447e-02 +2.3762204153e+01 2.3762300411e+01 4.9935713700e-03 0.0000e+00 0.0000e+00
       11 -1    0    0    0    0 +4.9606800439e-18 +6.1208536341e-18 -2.7755463794e-15 5.1100000000e-04 5.1099893000e-04 0.0000e+00 1.0000e+00
       50  1    1    2    0    0 -3.8711708173e-02 -5.7604504666e-02 +2.3721436680e+01 2.3721538735e+01 4.9935713700e-03 0.0000e+00 0.0000e+00
       11  1    1    2    0    0 -3.7580170003e-03 +5.2022192189e-03 +4.0767473374e-02 4.1272675971e-02 5.1099893000e-04 0.0000e+00 1.0000e+00
<vert_displacement>
179.65663333691097
</vert_displacement>
</event>
<event>
 4   1200 +8.6263000e+09 1.43703100e-02 7.81665300e-03            nan
       50 -1    0    0    0    0 +6.1245129768e-04 -1.8766344883e-03 +3.9414982294e+00 3.9415018870e+00 4.9935713700e-03 0.0000e+00 0.0000e+00
       11 -1    0    0    0    0 +2.0485851348e-20 -6.2771448615e-20 +1.3183896764e-16 5.1100000000e-04 5.1099893000e-04 0.0000e+00 1.0000e+00
       50  1    1    2    0    0 -3.9688288763e-03 +1.0894728440e-02 +3.7549350097e+00 3.7549562327e+00 4.9935713700e-03 0.0000e+00 0.0000e+00
       11  1    1    2    0    0 +4.5812801740e-03 -1.2771362928e-02 +1.8656321977e-01 1.8705665433e-01 5.1099893000e-04 0.0000e+00 1.0000e+00
<vert_displacement>
362.36567869661536
</vert_displacement>
</event>
<event>
 4   1200 +8.6263000e+09 2.55361500e-02 7.81665300e-03            nan
       50 -1    0    0    0    0 -5.4253818540e-03 +8.4757189223e-03 +6.8285285575e+00 6.8285377987e+00 4.9935713700e-03 0.0000e+00 0.0000e+00
       11 -1    0    0    0    0 -4.4104504067e-20 +6.8901579600e-20 +5.5511090949e-17 5.1100000000e-04 5.1099893000e-04 0.0000e+00 1.0000e+00
       50  1    1    2    0    0 +1.5058525547e-02 +2.2777580810e-02 +6.1464511571e+00 6.1465138363e+00 4.9935713700e-03 0.0000e+00 0.0000e+00
       11  1    1    2    0    0 -2.0483907401e-02 -1.4301861888e-02 +6.8207740039e-01 6.8253496244e-01 5.1099893000e-04 0.0000e+00 1.0000e+00
<vert_displacement>
222.87975613281085
</vert_displacement>
</event>
<event>
 4   1200 +8.6263000e+09 1.95333700e-02 7.81665300e-03            nan
       50 -1    0    0    0    0 +1.7939668574e-02 +3.4055602585e-03 +9.0641911572e+00 9.0642109253e+00 4.9935713700e-03 0.0000e+00 0.0000e+00
       11 -1    0    0    0    0 +2.7191922618e-18 +5.1619532790e-19 +1.3738982051e-15 5.1100000000e-04 5.1099893000e-04 0.0000e+00 1.0000e+00
       50  1    1    2    0    0 +1.9100249205e-02 +2.2059417935e-02 +8.7005986492e+00 8.7006490119e+00 4.9935713700e-03 0.0000e+00 0.0000e+00
       11  1    1    2    0    0 -1.1605806314e-03 -1.8653857677e-02 +3.6359250794e-01 3.6407291345e-01 5.1099893000e-04 0.0000e+00 1.0000e+00
<vert_displacement>
242.15978348095442
</vert_displacement>
</event>
<event>
 4   1200 +8.6263000e+09 1.05022700e-02 7.81665300e-03            nan
       50 -1    0    0    0    0 -3.3004258540e-03 +3.5113076373e-02 +1.4886154240e+01 1.4886196855e+01 4.9935713700e-03 0.0000e+00 0.0000e+00
       11 -1    0    0    0    0 +1.0768979105e-20 -1.1457066528e-19 -4.8572121011e-17 5.1100000000e-04 5.1099893000e-04 0.0000e+00 1.0000e+00
       50  1    1    2    0    0 +5.7930380260e-03 +3.3180219921e-02 +1.4802158468e+01 1.4802197632e+01 4.9935713700e-03 0.0000e+00 0.0000e+00
       11  1    1    2    0    0 -9.0934638800e-03 +1.9328564520e-03 +8.3995771596e-02 8.4510222963e-02 5.1099893000e-04 0.0000e+00 1.0000e+00
<vert_displacement>
2.1310582959946864
</vert_displacement>
</event>
<event>
 4   1200 +8.6263000e+09 6.05319700e-03 7.81665300e-03            nan
       50 -1    0    0    0    0 -7.0136287204e-03 -3.4423587747e-04 +7.7360766416e+00 7.7360814402e+00 4.9935713700e-03 0.0000e+00 0.0000e+00
       11 -1    0    0    0    0 +6.2908897853e-19 +3.0876313128e-20 -6.9388910453e-16 5.1100000000e-04 5.1099893000e-04 0.0000e+00 1.0000e+00
       50  1    1    2    0    0 -3.7722109779e-03 +7.8142236729e-04 +7.7246083390e+00 7.7246109136e+00 4.9935713700e-03 0.0000e+00 0.0000e+00
       11  1    1    2    0    0 -3.2414177425e-03 -1.1256582448e-03 +1.1468302597e-02 1.1981526606e-02 5.1099893000e-04 0.0000e+00 1.0000e+00
<vert_displacement>
187.86810627395869
</vert_displacement>
</event>
<event>
 4   1200 +8.6263000e+09 1.49283500e-02 7.81665300e-03            nan
       50 -1    0    0    0    0 +8.3367240753e-02 +2.7324029919e-02 +2.4559552433e+01 2.4559709635e+01 4.9935713700e-03 0.0000e+00 0.0000e+00
       11 -1    0    0    0    0 -1.1023215783e-17 -3.6129140792e-18 -3.2473816282e-15 5.1100000000e-04 5.1099893000e-04 0.0000e+00 1.0000e+00
       50  1    1    2    0    0 +6.9413331382e-02 +3.1717808457e-02 +2.4364376912e+01 2.4364496947e+01 4.9935713700e-03 0.0000e+00 0.0000e+00
       11  1    1    2    0    0 +1.3953909371e-02 -4.3937785383e-03 +1.9517552121e-01 1.9572368808e-01 5.1099893000e-04 0.0000e+00 1.0000e+00
<vert_displacement>
263.50919641477373
</vert_displacement>
</event>
<event>
 4   1200 +8.6263000e+09 6.57223800e-03 7.81665300e-03            nan
       50 -1    0    0    0    0 -2.3162635915e-04 +4.9941885773e-03 +3.7916832148e+00 3.7916897991e+00 4.9935713700e-03 0.0000e+00 0.0000e+00
       11 -1    0    0    0    0 +1.8015019410e-20 -3.8842903927e-19 -2.9490273456e-16 5.1100000000e-04 5.1099893000e-04 0.0000e+00 1.0000e+00
       50  1    1    2    0    0 -4.4912573489e-03 +4.6468882970e-03 +3.7737299132e+00 3.7737387507e+00 4.9935713700e-03 0.0000e+00 0.0000e+00
       11  1    1    2    0    0 +4.2596309898e-03 +3.4730028021e-04 +1.7953301605e-02 1.8462048426e-02 5.1099893000e-04 0.0000e+00 1.0000e+00
<vert_displacement>
300.70953879746338
</vert_displacement>
</event>
<event>
 4   1200 +8.6263000e+09 9.30245300e-03 7.81665300e-03            nan
       50 -1    0    0    0    0 -1.9991518761e-04 -1.4410679891e-02 +5.6806068746e+00 5.6806273516e+00 4.9935713700e-03 0.0000e+00 0.0000e+00
       11 -1    0    0    0    0 -2.3931282800e-20 -1.7250618122e-18 +6.8000941408e-16 5.1100000000e-04 5.1099893000e-04 0.0000e+00 1.0000e+00
       50  1    1    2    0    0 +6.9800785874e-03 -1.1081464919e-02 +5.6196796448e+00 5.6196971241e+00 4.9935713700e-03 0.0000e+00 0.0000e+00
       11  1    1    2    0    0 -7.1799937750e-03 -3.3292149726e-03 +6.0927229774e-02 6.1441227452e-02 5.1099893000e-04 0.0000e+00 1.0000e+00
<vert_displacement>
47.440182359024348
</vert_displacement>
</event>
<event>
 4   1200 +8.6263000e+09 4.42682700e-02 7.81665300e-03            nan
       50 -1    0    0    0    0 -3.7783394560e-02 -2.9842840230e-02 +1.5615615168e+01 1.5615690192e+01 4.9935713700e-03 0.0000e+00 0.0000e+00
       11 -1    0    0    0    0 -1.8803906425e-18 -1.4852079377e-18 +7.7715242318e-16 5.1100000000e-04 5.1099893000e-04 0.0000e+00 1.0000e+00
       50  1    1    2    0    0 -5.8179586299e-02 +1.0045182138e-02 +1.3410639492e+01 1.3410770384e+01 4.9935713700e-03 0.0000e+00 0.0000e+00
       11  1    1    2    0    0 +2.0396191739e-02 -3.9888022369e-02 +2.2049756757e+00 2.2054308083e+00 5.1099893000e-04 0.0000e+00 1.0000e+00
<vert_displacement>
208.34375112313870
</vert_displacement>
</event>
<event>
 4   1200 +8.6263000e+09 1.57250400e-02 7.81665300e-03            nan
       50 -1    0    0    0    0 -2.3758742103e-02 -1.9908397419e-02 +1.2840306658e+01 1.2840345043e+01 4.9935713700e-03 0.0000e+00 0.0000e+00
       11 -1    0    0    0    0 -1.5407006836e-18 -1.2910145402e-18 +8.3266484224e-16 5.1100000000e-04 5.1099893000e-04 0.0000e+00 1.0000e+00
       50  1    1    2    0    0 -1.4864400858e-02 -3.1826918445e-02 +1.2618915990e+01 1.2618965869e+01 4.9935713700e-03 0.0000e+00 0.0000e+00
       11  1    1    2    0    0 -8.8943412458e-03 +1.1918521026e-02 +2.2139066799e-01 2.2189017428e-01 5.1099893000e-04 0.0000e+00 1.0000e+00
<vert_displacement>
442.31570499129998
</vert_displacement>
</event>
<event>
 4   1200 +8.6263000e+09 1.05427000e-02 7.81665300e-03            nan
       50 -1    0    0    0    0 +2.8185799254e-03 +6.6859754821e-03 +1.1532653256e+01 1.1532656620e+01 4.9935713700e-03 0.0000e+00 0.0000e+00
       11 -1    0    0    0    0 -1.2210228111e-19 -2.8963977584e-19 -4.9960026220e-16 5.1100000000e-04 5.1099893000e-04 0.0000e+00 1.0000e+00
       50  1    1    2    0    0 -9.7677306322e-05 +1.5458775488e-02 +1.1447660551e+01 1.1447672078e+01 4.9935713700e-03 0.0000e+00 0.0000e+00
       11  1    1    2    0    0 +2.9162572318e-03 -8.7728000059e-03 +8.4992705157e-02 8.5495541556e-02 5.1099893000e-04 0.0000e+00 1.0000e+00
<vert_displacement>
274.75109173704163
</vert_displacement>
</event>
<event>
 4   1200 +8.6263000e+09 2.49959900e-02 7.81665300e-03            nan
       50 -1    0    0    0    0 +1.9269053143e-02 +2.3899121943e-02 +4.8407977639e+01 4.8407987631e+01 4.9935713700e-03 0.0000e+00 0.0000e+00
       11 -1    0    0    0    0 +3.8668883319e-20 +4.7960444708e-20 +9.7144495119e-17 5.1100000000e-04 5.1099893000e-04 0.0000e+00 1.0000e+00
       50  1    1    2    0    0 -4.9438042503e-03 +2.8605780171e-02 +4.7813728879e+01 4.7813737953e+01 4.9935713700e-03 0.0000e+00 0.0000e+00
       11  1    1    2    0    0 +2.4212857394e-02 -4.7066582286e-03 +5.9424875931e-01 5.9476067805e-01 5.1099893000e-04 0.0000e+00 1.0000e+00
<vert_displacement>
257.89394200358657
</vert_displacement>
</event>
<event>
 4   1200 +8.6263000e+09 1.60693800e-02 7.81665300e-03            nan
       50 -1    0    0    0    0 +3.3170496470e-02 +1.9342868169e-02 +1.2347077265e+01 1.2347137982e+01 4.9935713700e-03 0.0000e+00 0.0000e+00
       11 -1    0    0    0    0 -1.2303251120e-18 -7.1744528962e-19 -4.5796478305e-16 5.1100000000e-04 5.1099893000e-04 0.0000e+00 1.0000e+00
       50  1    1    2    0    0 +3.5448032086e-02 +3.9829122661e-03 +1.2114424378e+01 1.2114477924e+01 4.9935713700e-03 0.0000e+00 0.0000e+00
       11  1    1    2    0    0 -2.2775356158e-03 +1.5359955902e-02 +2.3265288722e-01 2.3317105838e-01 5.1099893000e-04 0.0000e+00 1.0000e+00
<vert_displacement>
263.30646050476474
</vert_displacement>
</event>
<event>
 4   1200 +8.6263000e+09 8.77704300e-03 7.81665300e-03            nan
       50 -1    0    0    0    0 -1.9698710514e-02 +1.6602468879e-02 +1.1881675384e+01 1.1881704362e+01 4.9935713700e-03 0.0000e+00 0.0000e+00
       11 -1    0    0    0    0 -1.2539373522e-18 +1.0568435863e-18 +7.5633765770e-16 5.1100000000e-04 5.1099893000e-04 0.0000e+00 1.0000e+00
       50  1    1    2    0    0 -2.4174954223e-02 +2.2125256644e-02 +1.1830457638e+01 1.1830504081e+01 4.9935713700e-03 0.0000e+00 0.0000e+00
       11  1    1    2    0    0 +4.4762437084e-03 -5.5227877646e-03 +5.1217745877e-02 5.1711280733e-02 5.1099893000e-04 0.0000e+00 1.0000e+00
<vert_displacement>
449.69244206288221
</vert_displacement>
</event>
<event>
 4   1200 +8.6263000e+09 2.48553400e-02 7.81665300e-03            nan
       50 -1    0    0    0    0 -2.5885527334e-02 -2.8890533972e-02 +2.7235956737e+01 2.7235984819e+01 4.9935713700e-03 0.0000e+00 0.0000e+00
       11 -1    0    0    0    0 -1.3189677703e-18 -1.4720844850e-18 +1.3877773732e-15 5.1100000000e-04 5.1099893000e-04 0.0000e+00 1.0000e+00
       50  1    1    2    0    0 -1.2023526090e-02 -7.8653033181e-03 +2.6642966713e+01 2.6642971055e+01 4.9935713700e-03 0.0000e+00 0.0000e+00
       11  1    1    2    0    0 -1.3862001244e-02 -2.1025230654e-02 +5.9299002398e-01 5.9352476365e-01 5.1099893000e-04 0.0000e+00 1.0000e+00
<vert_displacement>
256.37056603631868
</vert_displacement>
</event>
<event>
 4   1200 +8.6263000e+09 1.04270900e-02 7.81665300e-03            nan
       50 -1    0    0    0    0 -6.1290963773e-03 +3.6532378943e-03 +2.8244646883e+00 2.8244781152e+00 4.9935713700e-03 0.0000e+00 0.0000e+00
       11 -1    0    0    0    0 -4.9689325577e-19 +2.9617241428e-19 +2.2898276816e-16 5.1100000000e-04 5.1099893000e-04 0.0000e+00 1.0000e+00
       50  1    1    2    0    0 -1.3170058886e-02 -2.0771426733e-03 +2.7399040193e+00 2.7399410095e+00 4.9935713700e-03 0.0000e+00 0.0000e+00
       11  1    1    2    0    0 +7.0409625088e-03 +5.7303805676e-03 +8.4560669048e-02 8.5048105706e-02 5.1099893000e-04 0.0000e+00 1.0000e+00
<vert_displacement>
342.21603396145707
</vert_displacement>
</event>
<event>
 4   1200 +8.6263000e+09 2.17968100e-02 7.81665300e-03            nan
       50 -1    0    0    0    0 -1.0573736343e-01 -6.3132507488e-02 +3.7960769098e+01 3.7960969186e+01 4.9935713700e-03 0.0000e+00 0.0000e+00
       11 -1    0    0    0    0 +3.5563071181e-18 +2.1233609245e-18 -1.2767497597e-15 5.1100000000e-04 5.1099893000e-04 0.0000e+00 1.0000e+00
       50  1    1    2    0    0 -8.3657510019e-02 -5.8400703532e-02 +3.7515118865e+01 3.7515257931e+01 4.9935713700e-03 0.0000e+00 0.0000e+00
       11  1    1    2    0    0 -2.2079853408e-02 -4.7318039563e-03 +4.4565023251e-01 4.4622225488e-01 5.1099893000e-04 0.0000e+00 1.0000e+00
<vert_displacement>
487.66061982338942
</vert_displacement>
</event>
<event>
 4   1200 +8.6263000e+09 4.03316800e-02 7.81665300e-03            nan
       50 -1    0    0    0    0 -1.5242613171e-02 -1.1432810664e-03 +1.4961919267e+01 1.4961927908e+01 4.9935713700e-03 0.0000e+00 0.0000e+00
       11 -1    0    0    0    0 +2.3327923454e-19 +1.7497244669e-20 -2.2898337933e-16 5.1100000000e-04 5.1099893000e-04 0.0000e+00 1.0000e+00
       50  1    1    2    0    0 -4.0309716714e-02 +2.8643831336e-02 +1.3182696572e+01 1.3182790265e+01 4.9935713700e-03 0.0000e+00 0.0000e+00
       11  1    1    2    0    0 +2.5067103543e-02 -2.9787112402e-02 +1.7792226952e+00 1.7796486428e+00 5.1099893000e-04 0.0000e+00 1.0000e+00
<vert_displacement>
147.35427738002005
</vert_displacement>
</event>
<event>
 4   1200 +8.6263000e+09 2.01922800e-02 7.81665300e-03            nan
       50 -1    0    0    0    0 -8.7493340534e-03 +8.1809175640e-03 +5.0117515544e+00 5.0117683563e+00 4.9935713700e-03 0.0000e+00 0.0000e+00
       11 -1    0    0    0    0 +1.9624088147e-18 -1.8349173368e-18 -1.1240976019e-15 5.1100000000e-04 5.1099893000e-04 0.0000e+00 1.0000e+00
       50  1    1    2    0    0 -2.7423273103e-02 +1.0154819183e-02 +4.6037560711e+00 4.6038516542e+00 4.9935713700e-03 0.0000e+00 0.0000e+00
       11  1    1    2    0    0 +1.8673939050e-02 -1.9739016192e-03 +4.0799548333e-01 4.0842770207e-01 5.1099893000e-04 0.0000e+00 1.0000e+00
<vert_displacement>
89.898477954829843
</vert_displacement>
</event>
<event>
 4   1200 +8.6263000e+09 5.96176900e-03 7.81665300e-03            nan
       50 -1    0    0    0    0 +7.4543105551e-03 -3.5441674658e-02 +1.6554033310e+01 1.6554073681e+01 4.9935713700e-03 0.0000e+00 0.0000e+00
       11 -1    0    0    0    0 +5.9367186285e-19 -2.8226252262e-18 +1.3183866865e-15 5.1100000000e-04 5.1099893000e-04 0.0000e+00 1.0000e+00
       50  1    1    2    0    0 +5.2039712531e-03 -3.7778234832e-02 +1.6543643849e+01 1.6543688556e+01 4.9935713700e-03 0.0000e+00 0.0000e+00
       11  1    1    2    0    0 +2.2503393020e-03 +2.3365601738e-03 +1.0389460973e-02 1.0896125901e-02 5.1099893000e-04 0.0000e+00 1.0000e+00
<vert_displacement>
146.95076050649601
</vert_displacement>
</event>
<event>
 4   1200 +8.6263000e+09 1.60819200e-02 7.81665300e-03            nan
       50 -1    0    0    0    0 -5.2850893202e-03 -1.3697317533e-02 +8.7864501614e+00 8.7864638464e+00 4.9935713700e-03 0.0000e+00 0.0000e+00
       11 -1    0    0    0    0 -1.0100523615e-18 -2.6177434443e-18 +1.6792099806e-15 5.1100000000e-04 5.1099893000e-04 0.0000e+00 1.0000e+00
       50  1    1    2    0    0 +1.0140574011e-02 -1.3045285170e-02 +8.5514838177e+00 8.5515012384e+00 4.9935713700e-03 0.0000e+00 0.0000e+00
       11  1    1    2    0    0 -1.5425663331e-02 -6.5203236364e-04 +2.3496634374e-01 2.3547360796e-01 5.1099893000e-04 0.0000e+00 1.0000e+00
<vert_displacement>
346.56093220956961
</vert_displacement>
</event>
<event>
 4   1200 +8.6263000e+09 5.44111700e-03 7.81665300e-03            nan
       50 -1    0    0    0    0 +5.9008208482e-02 +3.1441123363e-03 +2.1745058672e+01 2.1745139536e+01 4.9935713700e-03 0.0000e+00 0.0000e+00
       11 -1    0    0    0    0 +4.4437794083e-18 +2.3677623871e-19 +1.6375729148e-15 5.1100000000e-04 5.1099893000e-04 0.0000e+00 1.0000e+00
       50  1    1    2    0    0 +5.9999223314e-02 +1.2295155580e-03 +2.1740485700e+01 2.1740569101e+01 4.9935713700e-03 0.0000e+00 0.0000e+00
       11  1    1    2    0    0 -9.9101483180e-04 +1.9145967783e-03 +4.5729725783e-03 5.0814357546e-03 5.1099893000e-04 0.0000e+00 1.0000e+00
<vert_displacement>
173.04307040881378
</vert_displacement>
</event>
<event>
 4   1200 +8.6263000e+09 2.93266600e-02 7.81665300e-03            nan
       50 -1    0    0    0    0 -2.4148788797e-03 +1.4987119465e-03 +5.5706647958e+00 5.5706677590e+00 4.9935713700e-03 0.0000e+00 0.0000e+00
       11 -1    0    0    0    0 -8.4224132950e-20 +5.2270826208e-20 +1.9428900402e-16 5.1100000000e-04 5.1099893000e-04 0.0000e+00 1.0000e+00
       50  1    1    2    0    0 -1.9154502669e-02 +2.4474195028e-02 +4.5745486651e+00 4.5746569605e+00 4.9935713700e-03 0.0000e+00 0.0000e+00
       11  1    1    2    0    0 +1.6739623790e-02 -2.2975483081e-02 +9.9611613071e-01 9.9652179846e-01 5.1099893000e-04 0.0000e+00 1.0000e+00
<vert_displacement>
325.18647373129699
</vert_displacement>
</event>
<event>
 4   1200 +8.6263000e+09 3.02137300e-02 7.81665300e-03            nan
       50 -1    0    0    0    0 -5.0933032199e-03 -5.3662103137e-04 +3.5847977113e+00 3.5848048477e+00 4.9935713700e-03 0.0000e+00 0.0000e+00
       11 -1    0    0    0    0 -7.3941106531e-20 -7.7902985811e-21 +5.2041651168e-17 5.1100000000e-04 5.1099893000e-04 0.0000e+00 1.0000e+00
       50  1    1    2    0    0 -2.9007999366e-02 -1.4773435865e-02 +2.0795006210e+00 2.0797614015e+00 4.9935713700e-03 0.0000e+00 0.0000e+00
       11  1    1    2    0    0 +2.3914696146e-02 +1.4236814833e-02 +1.5052970902e+00 1.5055544462e+00 5.1099893000e-04 0.0000e+00 1.0000e+00
<vert_displacement>
286.56431475520981
</vert_displacement>
</event>
<event>
 4   1200 +8.6263000e+09 1.99104900e-02 7.81665300e-03            nan
       50 -1    0    0    0    0 +8.0862432436e-03 +9.1061296995e-03 +4.3689567355e+00 4.3689765622e+00 4.9935713700e-03 0.0000e+00 0.0000e+00
       11 -1    0    0    0    0 +4.4949582424e-19 +5.0618898685e-19 +2.4286034315e-16 5.1100000000e-04 5.1099893000e-04 0.0000e+00 -1.0000e+00
       50  1    1    2    0    0 +2.5692093891e-02 +2.3656609753e-03 +3.9684928320e+00 3.9685798434e+00 4.9935713700e-03 0.0000e+00 0.0000e+00
       11  1    1    2    0    0 -1.7605850648e-02 +6.7404687242e-03 +4.0046390349e-01 4.0090771882e-01 5.1099893000e-04 0.0000e+00 -1.0000e+00
<vert_displacement>
148.45303749029591
</vert_displacement>
</event>
<event>
 4   1200 +8.6263000e+09 6.65017600e-03 7.81665300e-03            nan
       50 -1    0    0    0    0 +3.3140504262e-02 +7.2623642493e-04 +1.3784344321e+01 1.3784385083e+01 4.9935713700e-03 0.0000e+00 0.0000e+00
       11 -1    0    0    0    0 +5.1715852087e-18 +1.1332940270e-19 +2.1510508904e-15 5.1100000000e-04 5.1099893000e-04 0.0000e+00 1.0000e+00
       50  1    1    2    0    0 +3.0955480486e-02 +4.5607647104e-03 +1.3765448797e+01 1.3765485264e+01 4.9935713700e-03 0.0000e+00 0.0000e+00
       11  1    1    2    0    0 +2.1850237758e-03 -3.8345282855e-03 +1.8895524073e-02 1.9410818787e-02 5.1099893000e-04 0.0000e+00 1.0000e+00
<vert_displacement>
279.26808879648530
</vert_displacement>
</event>
<event>
 4   1200 +8.6263000e+09 1.19825800e-02 7.81665300e-03            nan
       50 -1    0    0    0    0 +1.5749748221e-02 +5.3209401044e-03 +4.9304008958e+00 4.9304314513e+00 4.9935713700e-03 0.0000e+00 0.0000e+00
       11 -1    0    0    0    0 -1.9949024775e-19 -6.7396357377e-20 -6.2449690141e-17 5.1100000000e-04 5.1099893000e-04 0.0000e+00 1.0000e+00
       50  1    1    2    0    0 +1.4771341899e-02 -5.6835200796e-03 +4.8114248916e+00 4.8114535141e+00 4.9935713700e-03 0.0000e+00 0.0000e+00
       11  1    1    2    0    0 +9.7840632215e-04 +1.1004460184e-02 +1.1897600414e-01 1.1948893716e-01 5.1099893000e-04 0.0000e+00 1.0000e+00
<vert_displacement>
231.44992132068825
</vert_displacement>
</event>
<event>
 4   1200 +8.6263000e+09 1.44013600e-02 7.81665300e-03            nan
       50 -1    0    0    0    0 -1.3608244356e-02 +8.5201048019e-04 +4.8810348645e+00 4.8810564629e+00 4.9935713700e-03 0.0000e+00 0.0000e+00
       11 -1    0    0    0    0 -5.2232703643e-19 +3.2702830540e-20 +1.8734940443e-16 5.1100000000e-04 5.1099893000e-04 0.0000e+00 1.0000e+00
       50  1    1    2    0    0 -2.6588857069e-02 +3.0902683013e-04 +4.6953473598e+00 4.6954253086e+00 4.9935713700e-03 0.0000e+00 0.0000e+00
       11  1    1    2    0    0 +1.2980612713e-02 +5.4298365006e-04 +1.8568750462e-01 1.8614215436e-01 5.1099893000e-04 0.0000e+00 1.0000e+00
<vert_displacement>
474.75627523007245
</vert_displacement>
</event>
<event>
 4   1200 +8.6263000e+09 1.39944100e-02 7.81665300e-03            nan
       50 -1    0    0    0    0 -6.9230290966e-02 +1.8129515450e-03 +2.1520756854e+01 2.1520868863e+01 4.9935713700e-03 0.0000e+00 0.0000e+00
       11 -1    0    0    0    0 +3.1250333056e-18 -8.1836055871e-20 -9.7144011664e-16 5.1100000000e-04 5.1099893000e-04 0.0000e+00 1.0000e+00
       50  1    1    2    0    0 -5.7023988702e-02 -4.1050913777e-03 +2.1352241563e+01 2.1352318686e+01 4.9935713700e-03 0.0000e+00 0.0000e+00
       11  1    1    2    0    0 -1.2206302264e-02 +5.9180429227e-03 +1.6851529131e-01 1.6906117701e-01 5.1099893000e-04 0.0000e+00 1.0000e+00
<vert_displacement>
183.20661275702358
</vert_displacement>
</event>
<event>
 4   1200 +8.6263000e+09 3.12384400e-02 7.81665300e-03            nan
       50 -1    0    0    0    0 -1.1994927549e-02 +7.6027491870e-04 +3.7502294908e+00 3.7502520750e+00 4.9935713700e-03 0.0000e+00 0.0000e+00
       11 -1    0    0    0    0 -5.2154965627e-19 +3.3057400380e-20 +1.6306316932e-16 5.1100000000e-04 5.1099893000e-04 0.0000e+00 1.0000e+00
       50  1    1    2    0    0 -2.9884908935e-02 +1.9676967820e-02 +1.8258816809e+00 1.8262390696e+00 4.9935713700e-03 0.0000e+00 0.0000e+00
       11  1    1    2    0    0 +1.7889981386e-02 -1.8916692901e-02 +1.9243478099e+00 1.9245240054e+00 5.1099893000e-04 0.0000e+00 1.0000e+00
<vert_displacement>
46.669149162138439
</vert_displacement>
</event>
<event>
 4   1200 +8.6263000e+09 2.08228800e-02 7.81665300e-03            nan
       50 -1    0    0    0    0 +9.7777515768e-03 +7.3620778931e-03 +2.9308638713e+00 2.9308936816e+00 4.9935713700e-03 0.0000e+00 0.0000e+00
       11 -1    0    0    0    0 -1.1574435421e-18 -8.7148762644e-19 -3.4694166996e-16 5.1100000000e-04 5.1099893000e-04 0.0000e+00 1.0000e+00
       50  1    1    2    0    0 +1.3525256474e-02 +2.5655186950e-02 +2.4520124048e+00 2.4521889997e+00 4.9935713700e-03 0.0000e+00 0.0000e+00
       11  1    1    2    0    0 -3.7475048974e-03 -1.8293109057e-02 +4.7885146649e-01 4.7921568183e-01 5.1099893000e-04 0.0000e+00 1.0000e+00
<vert_displacement>
220.00926348050191
</vert_displacement>
</event>
<event>
 4   1200 +8.6263000e+09 9.83322700e-03 7.81665300e-03            nan
       50 -1    0    0    0    0 +4.7200760867e-02 +1.1655687238e-03 +1.8523538923e+01 1.8523599770e+01 4.9935713700e-03 0.0000e+00 0.0000e+00
       11 -1    0    0    0    0 +1.0255146458e-18 +2.5323909507e-20 +4.0245453905e-16 5.1100000000e-04 5.1099893000e-04 0.0000e+00 1.0000e+00
       50  1    1    2    0    0 +3.9543632325e-02 +5.1414359187e-03 +1.8453075540e+01 1.8453119302e+01 4.9935713700e-03 0.0000e+00 0.0000e+00
       11  1    1    2    0    0 +7.6571285418e-03 -3.9758671949e-03 +7.0463383006e-02 7.0991468515e-02 5.1099893000e-04 0.0000e+00 1.0000e+00
<vert_displacement>
239.82525292992239
</vert_displacement>
</event>
<event>
 4   1200 +8.6263000e+09 1.49814200e-02 7.81665300e-03            nan
       50 -1    0    0    0    0 -2.0429233865e-03 -6.7603992165e-03 +6.5661310502e+00 6.5661367470e+00 4.9935713700e-03 0.0000e+00 0.0000e+00
       11 -1    0    0    0    0 -4.3178000331e-21 -1.4288373296e-20 +1.3877779781e-17 5.1100000000e-04 5.1099893000e-04 0.0000e+00 1.0000e+00
       50  1    1    2    0    0 +5.2603448125e-03 +5.5746794124e-03 +6.3647160220e+00 6.3647225961e+00 4.9935713700e-03 0.0000e+00 0.0000e+00
       11  1    1    2    0    0 -7.3032681989e-03 -1.2335078629e-02 +2.0141502818e-01 2.0192515096e-01 5.1099893000e-04 0.0000e+00 1.0000e+00
<vert_displacement>
96.286836826901663
</vert_displacement>
</event>
<event>
 4   1200 +8.6263000e+09 9.34083100e-03 7.81665300e-03            nan
       50 -1    0    0    0    0 -2.5264850059e-02 +2.6591045501e-02 +1.1978969696e+01 1.1979026893e+01 4.9935713700e-03 0.0000e+00 0.0000e+00
       11 -1    0    0    0    0 -1.1561456817e-18 +1.2168337574e-18 +5.4817004863e-16 5.1100000000e-04 5.1099893000e-04 0.0000e+00 1.0000e+00
       50  1    1    2    0    0 -3.1438818474e-02 +2.1702668179e-02 +1.1917676455e+01 1.1917738730e+01 4.9935713700e-03 0.0000e+00 0.0000e+00
       11  1    1    2    0    0 +6.1739684144e-03 +4.8883773223e-03 +6.1293240762e-02 6.1799163439e-02 5.1099893000e-04 0.0000e+00 1.0000e+00
<vert_displacement>
448.66483136670718
</vert_displacement>
</event>
<event>
 4   1200 +8.6263000e+09 1.48632300e-02 7.81665300e-03            nan
       50 -1    0    0    0    0 +2.7582309622e-02 +2.1719146561e-02 +1.2345067044e+01 1.2345117973e+01 4.9935713700e-03 0.0000e+00 0.0000e+00
       11 -1    0    0    0    0 -1.0852347893e-18 -8.5454676441e-19 -4.8572060920e-16 5.1100000000e-04 5.1099893000e-04 0.0000e+00 1.0000e+00
       50  1    1    2    0    0 +1.9062967394e-02 +3.2805634145e-02 +1.2150215396e+01 1.2150275664e+01 4.9935713700e-03 0.0000e+00 0.0000e+00
       11  1    1    2    0    0 +8.5193422285e-03 -1.1086487584e-02 +1.9485164758e-01 1.9535330835e-01 5.1099893000e-04 0.0000e+00 1.0000e+00
<vert_displacement>
103.80085807460702
</vert_displacement>
</event>
<event>
 4   1200 +8.6263000e+09 3.14086700e-02 7.81665300e-03            nan
       50 -1    0    0    0    0 +3.7081415704e-02 +3.6353974942e-02 +2.1297029499e+01 2.1297093394e+01 4.9935713700e-03 0.0000e+00 0.0000e+00
       11 -1    0    0    0    0 +1.3773080360e-18 +1.3502888408e-18 +7.9103155353e-16 5.1100000000e-04 5.1099893000e-04 0.0000e+00 1.0000e+00
       50  1    1    2    0    0 +5.7697771466e-02 +1.3158158415e-02 +2.0310376496e+01 2.0310463326e+01 4.9935713700e-03 0.0000e+00 0.0000e+00
       11  1    1    2    0    0 -2.0616355762e-02 +2.3195816527e-02 +9.8665300256e-01 9.8714106825e-01 5.1099893000e-04 0.0000e+00 1.0000e+00
<vert_displacement>
165.08518060695488
</vert_displacement>
</event>
<event>
 4   1200 +8.6263000e+09 7.81648600e-03 7.81665300e-03            nan
       50 -1    0    0    0    0 -4.0446374686e-03 -3.5861170285e-02 +1.5750543629e+01 1.5750585765e+01 4.9935713700e-03 0.0000e+00 0.0000e+00
       11 -1    0    0    0    0 -2.3164157660e-19 -2.0538152278e-18 +9.0205383968e-16 5.1100000000e-04 5.1099893000e-04 0.0000e+00 1.0000e+00
       50  1    1    2    0    0 -6.9849221874e-03 -3.0539941417e-02 +1.5715090507e+01 1.5715122527e+01 4.9935713700e-03 0.0000e+00 0.0000e+00
       11  1    1    2    0    0 +2.9402847188e-03 -5.3212288686e-03 +3.5453122845e-02 3.5974237870e-02 5.1099893000e-04 0.0000e+00 1.0000e+00
<vert_displacement>
448.84969394275822
</vert_displacement>
</event>
<event>
 4   1200 +8.6263000e+09 2.87017900e-02 7.81665300e-03            nan
       50 -1    0    0    0    0 -2.7691543486e-02 +1.1689934611e-03 +1.3282625178e+01 1.3282655034e+01 4.9935713700e-03 0.0000e+00 0.0000e+00
       11 -1    0    0    0    0 -1.7648686077e-18 +7.4503606601e-20 +8.4654321331e-16 5.1100000000e-04 5.1099893000e-04 0.0000e+00 1.0000e+00
       50  1    1    2    0    0 -3.2495696020e-02 +2.8591813336e-02 +1.2448437588e+01 1.2448513839e+01 4.9935713700e-03 0.0000e+00 0.0000e+00
       11  1    1    2    0    0 +4.8041525333e-03 -2.7422819875e-02 +8.3418758966e-01 8.3465219511e-01 5.1099893000e-04 0.0000e+00 1.0000e+00
<vert_displacement>
262.61362981313079
</vert_displacement>
</event>
<event>
 4   1200 +8.6263000e+09 7.75678700e-03 7.81665300e-03            nan
       50 -1    0    0    0    0 +4.8459927996e-02 -4.4231861504e-02 +2.9567513205e+01 2.9567586423e+01 4.9935713700e-03 0.0000e+00 0.0000e+00
       11 -1    0    0    0    0 -7.0509694414e-19 +6.4357814115e-19 -4.3021036285e-16 5.1100000000e-04 5.1099893000e-04 0.0000e+00 1.0000e+00
       50  1    1    2    0    0 +4.5575178460e-02 -4.9398789557e-02 +2.9532995626e+01 2.9533072528e+01 4.9935713700e-03 0.0000e+00 0.0000e+00
       11  1    1    2    0    0 +2.8847495364e-03 +5.1669280534e-03 +3.4517579060e-02 3.5024895567e-02 5.1099893000e-04 0.0000e+00 1.0000e+00
<vert_displacement>
492.43559483176301
</vert_displacement>
</event>
<event>
 4   1200 +8.6263000e+09 3.51689400e-02 7.81665300e-03            nan
       50 -1    0    0    0    0 +1.9687827716e-02 -1.7858113003e-02 +8.4944812606e+00 8.4945243155e+00 4.9935713700e-03 0.0000e+00 0.0000e+00
       11 -1    0    0    0    0 -4.5030533260e-19 +4.0845560167e-19 -1.9428807812e-16 5.1100000000e-04 5.1099893000e-04 0.0000e+00 1.0000e+00
       50  1    1    2    0    0 +2.0642349875e-02 -4.9411276127e-02 +7.0684526890e+00 7.0686572935e+00 4.9935713700e-03 0.0000e+00 0.0000e+00
       11  1    1    2    0    0 -9.5452215885e-04 +3.1553163124e-02 +1.4260285716e+00 1.4263780219e+00 5.1099893000e-04 0.0000e+00 1.0000e+00
<vert_displacement>
463.56079432486365
</vert_displacement>
</event>
<event>
 4   1200 +8.6263000e+09 1.67793400e-02 7.81665300e-03            nan
       50 -1    0    0    0    0 -1.1942256441e-02 -1.1979353304e-02 +2.5814153713e+01 2.5814159738e+01 4.9935713700e-03 0.0000e+00 0.0000e+00
       11 -1    0    0    0    0 -9.7587060953e-19 -9.7890200803e-19 +2.1094232939e-15 5.1100000000e-04 5.1099893000e-04 0.0000e+00 1.0000e+00
       50  1    1    2    0    0 +3.7486764482e-03 -8.1102920248e-03 +2.5560577690e+01 2.5560579739e+01 4.9935713700e-03 0.0000e+00 0.0000e+00
       11  1    1    2    0    0 -1.5690932889e-02 -3.8690612789e-03 +2.5357602279e-01 2.5409099840e-01 5.1099893000e-04 0.0000e+00 1.0000e+00
<vert_displacement>
100.64468458337954
</vert_displacement>
</event>
<event>
 4   1200 +8.6263000e+09 1.61400100e-02 7.81665300e-03            nan
       50 -1    0    0    0    0 -4.0429500069e-02 -1.6777045099e-02 +1.3986196976e+01 1.3986266364e+01 4.9935713700e-03 0.0000e+00 0.0000e+00
       11 -1    0    0    0    0 +3.0889264805e-18 +1.2818130024e-18 -1.0685844279e-15 5.1100000000e-04 5.1099893000e-04 0.0000e+00 1.0000e+00
       50  1    1    2    0    0 -4.4247549221e-02 -3.1170688992e-02 +1.3751729435e+01 1.3751836853e+01 4.9935713700e-03 0.0000e+00 0.0000e+00
       11  1    1    2    0    0 +3.8180491518e-03 +1.4393643893e-02 +2.3446754105e-01 2.3494051036e-01 5.1099893000e-04 0.0000e+00 1.0000e+00
<vert_displacement>
1.4600807827971598
</vert_displacement>
</event>
<event>
 4   1200 +8.6263000e+09 7.55896300e-03 7.81665300e-03            nan
       50 -1    0    0    0    0 +2.4825620432e-02 -1.8102218436e-02 +1.3437005804e+01 1.3437041859e+01 4.9935713700e-03 0.0000e+00 0.0000e+00
       11 -1    0    0    0    0 +4.0895676915e-18 -2.9820099708e-18 +2.2135013688e-15 5.1100000000e-04 5.1099893000e-04 0.0000e+00 1.0000e+00
       50  1    1    2    0    0 +2.0095021862e-02 -1.4839089438e-02 +1.3405434317e+01 1.3405458522e+01 4.9935713700e-03 0.0000e+00 0.0000e+00
       11  1    1    2    0    0 +4.7305985706e-03 -3.2631289979e-03 +3.1571487384e-02 3.2094337651e-02 5.1099893000e-04 0.0000e+00 1.0000e+00
<vert_displacement>
109.41598110468496
</vert_displacement>
</event>
<event>
 4   1200 +8.6263000e+09 8.86075800e-03 7.81665300e-03            nan
       50 -1    0    0    0    0 -1.4015575639e-02 +4.8578411858e-02 +2.8692762177e+01 2.8692807158e+01 4.9935713700e-03 0.0000e+00 0.0000e+00
       11 -1    0    0    0    0 -1.1456312564e-18 +3.9707928127e-18 +2.3453424983e-15 5.1100000000e-04 5.1099893000e-04 0.0000e+00 1.0000e+00
       50  1    1    2    0    0 -7.8232369202e-03 +5.2432748933e-02 +2.8640237484e+01 2.8640286983e+01 4.9935713700e-03 0.0000e+00 0.0000e+00
       11  1    1    2    0    0 -6.1923387186e-03 -3.8543370755e-03 +5.2524693125e-02 5.3031174613e-02 5.1099893000e-04 0.0000e+00 1.0000e+00
<vert_displacement>
472.88941248025685
</vert_displacement>
</event>
<event>
 4   1200 +8.6263000e+09 3.35979400e-02 7.81665300e-03            nan
       50 -1    0    0    0    0 +5.5705333195e-04 -9.7383802633e-03 +5.0093405282e+00 5.0093525140e+00 4.9935713700e-03 0.0000e+00 0.0000e+00
       11 -1    0    0    0    0 -2.7778458721e-20 +4.8562171455e-19 -2.4979970696e-16 5.1100000000e-04 5.1099893000e-04 0.0000e+00 1.0000e+00
       50  1    1    2    0    0 +2.9902075846e-02 -2.1906046481e-02 +3.4266197711e+00 3.4268238940e+00 4.9935713700e-03 0.0000e+00 0.0000e+00
       11  1    1    2    0    0 -2.9345022514e-02 +1.2167666218e-02 +1.5827207571e+00 1.5830396200e+00 5.1099893000e-04 0.0000e+00 1.0000e+00
<vert_displacement>
314.74366849560175
</vert_displacement>
</event>
<event>
 4   1200 +8.6263000e+09 2.77241700e-02 7.81665300e-03            nan
       50 -1    0    0    0    0 -2.8897155128e-02 +1.9225168306e-02 +9.7854227008e+00 9.7854855281e+00 4.9935713700e-03 0.0000e+00 0.0000e+00
       11 -1    0    0    0    0 -4.0367257057e-18 +2.6856183854e-18 +1.3669535005e-15 5.1100000000e-04 5.1099893000e-04 0.0000e+00 1.0000e+00
       50  1    1    2    0    0 -5.3828889122e-02 +1.7753300647e-02 +8.9933681235e+00 8.9935481246e+00 4.9935713700e-03 0.0000e+00 0.0000e+00
       11  1    1    2    0    0 +2.4931733993e-02 +1.4718676589e-03 +7.9205457722e-01 7.9244840348e-01 5.1099893000e-04 0.0000e+00 1.0000e+00
<vert_displacement>
124.51648060103344
</vert_displacement>
</event>
<event>
 4   1200 +8.6263000e+09 1.16540800e-02 7.81665300e-03            nan
       50 -1    0    0    0    0 +2.7528431247e-02 -2.5533351747e-02 +9.8165057855e+00 9.8165788612e+00 4.9935713700e-03 0.0000e+00 0.0000e+00
       11 -1    0    0    0    0 -3.8917201437e-20 +3.6096738836e-20 -1.3877686295e-17 5.1100000000e-04 5.1099893000e-04 0.0000e+00 1.0000e+00
       50  1    1    2    0    0 +3.7019795568e-02 -2.9102621450e-02 +9.7067387915e+00 9.7068542963e+00 4.9935713700e-03 0.0000e+00 0.0000e+00
       11  1    1    2    0    0 -9.4913643207e-03 +3.5692697029e-03 +1.0976699394e-01 1.1023556487e-01 5.1099893000e-04 0.0000e+00 1.0000e+00
<vert_displacement>
208.63733943334068
</vert_displacement>
</event>
<event>
 4   1200 +8.6263000e+09 2.35642200e-02 7.81665300e-03            nan
       50 -1    0    0    0    0 -3.5445536601e-02 +5.2104983634e-03 +1.5043750797e+01 1.5043794285e+01 4.9935713700e-03 0.0000e+00 0.0000e+00
       11 -1    0    0    0    0 -1.0463438219e-18 +1.5381267416e-19 +4.4408795054e-16 5.1100000000e-04 5.1099893000e-04 0.0000e+00 1.0000e+00
       50  1    1    2    0    0 -5.1813454952e-02 -9.7848580144e-03 +1.4505490724e+01 1.4505587422e+01 4.9935713700e-03 0.0000e+00 0.0000e+00
       11  1    1    2    0    0 +1.6367918351e-02 +1.4995356378e-02 +5.3826007288e-01 5.3871786368e-01 5.1099893000e-04 0.0000e+00 1.0000e+00
<vert_displacement>
402.14467836892152
</vert_displacement>
</event>
<event>
 4   1200 +8.6263000e+09 1.00376500e-02 7.81665300e-03            nan
       50 -1    0    0    0    0 +4.0600348152e-02 +1.0856870770e-02 +1.5541918050e+01 1.5541975674e+01 4.9935713700e-03 0.0000e+00 0.0000e+00
       11 -1    0    0    0    0 +3.0089979401e-18 +8.0463107512e-19 +1.1518521768e-15 5.1100000000e-04 5.1099893000e-04 0.0000e+00 1.0000e+00
       50  1    1    2    0    0 +4.7480673947e-02 +5.7291820114e-03 +1.5467356298e+01 1.5467431042e+01 4.9935713700e-03 0.0000e+00 0.0000e+00
       11  1    1    2    0    0 -6.8803257946e-03 +5.1276887589e-03 +7.4561751469e-02 7.5055632547e-02 5.1099893000e-04 0.0000e+00 1.0000e+00
<vert_displacement>
313.48739438268422
</vert_displacement>
</event>
<event>
 4   1200 +8.6263000e+09 2.24182800e-02 7.81665300e-03            nan
       50 -1    0    0    0    0 +2.7337371972e-03 +4.0234325369e-03 +1.1032240882e+01 1.1032243084e+01 4.9935713700e-03 0.0000e+00 0.0000e+00
       11 -1    0    0    0    0 +2.4071949683e-20 +3.5428374637e-20 +9.7144505212e-17 5.1100000000e-04 5.1099893000e-04 0.0000e+00 1.0000e+00
       50  1    1    2    0    0 -1.4522276893e-02 +1.7411243899e-02 +1.0543124678e+01 1.0543150239e+01 4.9935713700e-03 0.0000e+00 0.0000e+00
       11  1    1    2    0    0 +1.7256014090e-02 -1.3387811362e-02 +4.8911620397e-01 4.8960384559e-01 5.1099893000e-04 0.0000e+00 1.0000e+00
<vert_displacement>
44.554174551908943
</vert_displacement>
</event>
<event>
 4   1200 +8.6263000e+09 9.02355300e-03 7.81665300e-03            nan
       50 -1    0    0    0    0 -1.5931438721e-02 -3.8094061861e-03 +6.2215805436e+00 6.2216041113e+00 4.9935713700e-03 0.0000e+00 0.0000e+00
       11 -1    0    0    0    0 +9.0617731846e-19 +2.1667832661e-19 -3.5388236255e-16 5.1100000000e-04 5.1099893000e-04 0.0000e+00 1.0000e+00
       50  1    1    2    0    0 -2.3304129691e-02 -3.7025216526e-03 +6.1657822079e+00 6.1658293815e+00 4.9935713700e-03 0.0000e+00 0.0000e+00
       11  1    1    2    0    0 +7.3726909698e-03 -1.0688453350e-04 +5.5798335710e-02 5.6285729846e-02 5.1099893000e-04 0.0000e+00 1.0000e+00
<vert_displacement>
321.14804830963635
</vert_displacement>
</event>
<event>
 4   1200 +8.6263000e+09 1.10047800e-02 7.81665300e-03            nan
       50 -1    0    0    0    0 +2.4108901407e-02 +6.1500947307e-03 +1.0431135023e+01 1.0431165892e+01 4.9935713700e-03 0.0000e+00 0.0000e+00
       11 -1    0    0    0    0 +1.6037433390e-19 +4.0910920377e-20 +6.9388741647e-17 5.1100000000e-04 5.1099893000e-04 0.0000e+00 1.0000e+00
       50  1    1    2    0    0 +1.5304247051e-02 +1.3544830507e-03 +1.0336187454e+01 1.0336200079e+01 4.9935713700e-03 0.0000e+00 0.0000e+00
       11  1    1    2    0    0 +8.8046543566e-03 +4.7956116800e-03 +9.4947568888e-02 9.5476812825e-02 5.1099893000e-04 0.0000e+00 1.0000e+00
<vert_displacement>
372.22676069031115
</vert_displacement>
</event>
<event>
 4   1200 +8.6263000e+09 5.83129900e-03 7.81665300e-03            nan
       50 -1    0    0    0    0 +4.3479635522e-02 +1.2885513039e-02 +3.1813267749e+01 3.1813300462e+01 4.9935713700e-03 0.0000e+00 0.0000e+00
       11 -1    0    0    0    0 +4.4761993393e-18 +1.3265549322e-18 +3.2751545952e-15 5.1100000000e-04 5.1099893000e-04 0.0000e+00 1.0000e+00
       50  1    1    2    0    0 +4.4508846223e-02 +1.0056337261e-02 +3.1804391769e+01 3.1804424895e+01 4.9935713700e-03 0.0000e+00 0.0000e+00
       11  1    1    2    0    0 -1.0292107007e-03 +2.8291757780e-03 +8.8759799844e-03 9.3865675750e-03 5.1099893000e-04 0.0000e+00 1.0000e+00
<vert_displacement>
86.671619256946599
</vert_displacement>
</event>
<event>
 4   1200 +8.6263000e+09 2.74724600e-02 7.81665300e-03            nan
       50 -1    0    0    0    0 +2.8918254874e-02 +3.1211772083e-02 +2.6189779468e+01 2.6189814508e+01 4.9935713700e-03 0.0000e+00 0.0000e+00
       11 -1    0    0    0    0 +8.2747268993e-19 +8.9309984696e-19 +7.4939955261e-16 5.1100000000e-04 5.1099893000e-04 0.0000e+00 1.0000e+00
       50  1    1    2    0    0 +5.1898799686e-02 +4.3132535160e-02 +2.5455003360e+01 2.5455093300e+01 4.9935713700e-03 0.0000e+00 0.0000e+00
       11  1    1    2    0    0 -2.2980544812e-02 -1.1920763077e-02 +7.3477610768e-01 7.3523220792e-01 5.1099893000e-04 0.0000e+00 1.0000e+00
<vert_displacement>
158.32200679224007
</vert_displacement>
</event>
<event>
 4   1200 +8.6263000e+09 2.04343900e-02 7.81665300e-03            nan
       50 -1    0    0    0    0 +5.2399015690e-03 -4.6312945609e-04 +3.4139748864e+00 3.4139825911e+00 4.9935713700e-03 0.0000e+00 0.0000e+00
       11 -1    0    0    0    0 +7.9875539004e-20 -7.0598110379e-21 +5.2041642502e-17 5.1100000000e-04 5.1099893000e-04 0.0000e+00 1.0000e+00
       50  1    1    2    0    0 +2.3545746523e-02 +5.2745674102e-03 +2.9721311215e+00 2.9722332618e+00 4.9935713700e-03 0.0000e+00 0.0000e+00
       11  1    1    2    0    0 -1.8305844954e-02 -5.7376968663e-03 +4.4184376489e-01 4.4226032924e-01 5.1099893000e-04 0.0000e+00 1.0000e+00
<vert_displacement>
181.34187826748578
</vert_displacement>
</event>
<event>
 4   1200 +8.6263000e+09 3.42415300e-02 7.81665300e-03            nan
       50 -1    0    0    0    0 +2.7525288405e-02 -2.0438296156e-02 +1.2189531847e+01 1.2189581082e+01 4.9935713700e-03 0.0000e+00 0.0000e+00
       11 -1    0    0    0    0 +7.5209832002e-19 -5.5845402878e-19 +3.3306559005e-16 5.1100000000e-04 5.1099893000e-04 0.0000e+00 1.0000e+00
       50  1    1    2    0    0 +9.9866980947e-03 -4.8853510040e-02 +1.0937846593e+01 1.0937961393e+01 4.9935713700e-03 0.0000e+00 0.0000e+00
       11  1    1    2    0    0 +1.7538590310e-02 +2.8415213884e-02 +1.2516852540e+00 1.2521306891e+00 5.1099893000e-04 0.0000e+00 1.0000e+00
<vert_displacement>
201.44518418795568
</vert_displacement>
</event>
<event>
 4   1200 +8.6263000e+09 1.40024200e-02 7.81665300e-03            nan
       50 -1    0    0    0    0 -2.5497443116e-02 +4.8145850852e-02 +2.0787573275e+01 2.0787645266e+01 4.9935713700e-03 0.0000e+00 0.0000e+00
       11 -1    0    0    0    0 -7.3194769143e-19 +1.3821089520e-18 +5.9674282630e-16 5.1100000000e-04 5.1099893000e-04 0.0000e+00 1.0000e+00
       50  1    1    2    0    0 -3.3281572661e-02 +5.8112034635e-02 +2.0618715114e+01 2.0618824471e+01 4.9935713700e-03 0.0000e+00 0.0000e+00
       11  1    1    2    0    0 +7.7841295450e-03 -9.9661837826e-03 +1.6885816080e-01 1.6933179583e-01 5.1099893000e-04 0.0000e+00 1.0000e+00
<vert_displacement>
61.325488746532621
</vert_displacement>
</event>
<event>
 4   1200 +8.6263000e+09 8.00272800e-03 7.81665300e-03            nan
       50 -1    0    0    0    0 +2.2798979102e-02 +3.1173747522e-02 +1.2395061675e+01 1.2395122850e+01 4.9935713700e-03 0.0000e+00 0.0000e+00
       11 -1    0    0    0    0 +3.1907652683e-19 +4.3628317931e-19 +1.7347150552e-16 5.1100000000e-04 5.1099893000e-04 0.0000e+00 1.0000e+00
       50  1    1    2    0    0 +1.6502910941e-02 +3.1670021706e-02 +1.2356685081e+01 1.2356737695e+01 4.9935713700e-03 0.0000e+00 0.0000e+00
       11  1    1    2    0    0 +6.2960681608e-03 -4.9627418395e-04 +3.8376594215e-02 3.8896154898e-02 5.1099893000e-04 0.0000e+00 1.0000e+00
<vert_displacement>
350.93114256954846
</vert_displacement>
</event>
<event>
 4   1200 +8.6263000e+09 2.32550000e-02 7.81665300e-03            nan
       50 -1    0    0    0    0 +2.8254592231e-02 -2.5277113239e-02 +1.2425119364e+01 1.2425178204e+01 4.9935713700e-03 0.0000e+00 0.0000e+00
       11 -1    0    0    0    0 -9.6251284727e-19 +8.6108290065e-19 -4.2327055790e-16 5.1100000000e-04 5.1099893000e-04 0.0000e+00 1.0000e+00
       50  1    1    2    0    0 +4.8528871221e-02 -3.1604726180e-02 +1.1897871242e+01 1.1898013235e+01 4.9935713700e-03 0.0000e+00 0.0000e+00
       11  1    1    2    0    0 -2.0274278990e-02 +6.3276129404e-03 +5.2724812204e-01 5.2767596912e-01 5.1099893000e-04 0.0000e+00 1.0000e+00
<vert_displacement>
232.67475787248847
</vert_displacement>
</event>
<event>
 4   1200 +8.6263000e+09 5.41046200e-03 7.81665300e-03            nan
       50 -1    0    0    0    0 -2.5562711892e-02 -2.0882990618e-03 +9.2654650078e+00 9.2655018515e+00 4.9935713700e-03 0.0000e+00 0.0000e+00
       11 -1    0    0    0    0 -2.8524271187e-18 -2.3302382396e-19 +1.0338912306e-15 5.1100000000e-04 5.1099893000e-04 0.0000e+00 1.0000e+00
       50  1    1    2    0    0 -2.4270064617e-02 -3.7294574506e-03 +9.2612220297e+00 9.2612559280e+00 4.9935713700e-03 0.0000e+00 0.0000e+00
       11  1    1    2    0    0 -1.2926472749e-03 +1.6411583888e-03 +4.2429780840e-03 4.7569234556e-03 5.1099893000e-04 0.0000e+00 1.0000e+00
<vert_displacement>
442.55765952329347
</vert_displacement>
</event>
<event>
 4   1200 +8.6263000e+09 7.09055900e-03 7.81665300e-03            nan
       50 -1    0    0    0    0 -5.1459035583e-02 +1.3900547615e-02 +1.8857550691e+01 1.8857626687e+01 4.9935713700e-03 0.0000e+00 0.0000e+00
       11 -1    0    0    0    0 -5.1881847620e-18 +1.4014761160e-18 +1.9012493343e-15 5.1100000000e-04 5.1099893000e-04 0.0000e+00 1.0000e+00
       50  1    1    2    0    0 -4.6488986543e-02 +1.2738762717e-02 +1.8832736818e+01 1.8832799167e+01 4.9935713700e-03 0.0000e+00 0.0000e+00
       11  1    1    2    0    0 -4.9700490398e-03 +1.1617848984e-03 +2.4813873725e-02 2.5338519704e-02 5.1099893000e-04 0.0000e+00 1.0000e+00
<vert_displacement>
482.47413856522616
</vert_displacement>
</event>
<event>
 4   1200 +8.6263000e+09 8.31077800e-03 7.81665300e-03            nan
       50 -1    0    0    0    0 +1.4177682833e-02 +4.0771714692e-03 +4.5456570594e+00 4.5456837404e+00 4.9935713700e-03 0.0000e+00 0.0000e+00
       11 -1    0    0    0    0 -7.3582657015e-19 -2.1160658856e-19 -2.3592115033e-16 5.1100000000e-04 5.1099893000e-04 0.0000e+00 1.0000e+00
       50  1    1    2    0    0 +7.4063646487e-03 +3.7131665299e-03 +4.5020695751e+00 4.5020799678e+00 4.9935713700e-03 0.0000e+00 0.0000e+00
       11  1    1    2    0    0 +6.7713181846e-03 +3.6400493938e-04 +4.3587484333e-02 4.4114772581e-02 5.1099893000e-04 0.0000e+00 1.0000e+00
<vert_displacement>
466.27540564192378
</vert_displacement>
</event>
<event>
 4   1200 +8.6263000e+09 1.78982900e-02 7.81665300e-03            nan
       50 -1    0    0    0    0 -1.4669754297e-02 -2.2165387576e-02 +8.9161854417e+00 8.9162264592e+00 4.9935713700e-03 0.0000e+00 0.0000e+00
       11 -1    0    0    0    0 -6.8498855493e-20 -1.0349891687e-19 +4.1633178426e-17 5.1100000000e-04 5.1099893000e-04 0.0000e+00 1.0000e+00
       50  1    1    2    0    0 -2.9214506338e-03 -3.4410680584e-02 +8.6170394955e+00 8.6171101440e+00 4.9935713700e-03 0.0000e+00 0.0000e+00
       11  1    1    2    0    0 -1.1748303663e-02 +1.2245293008e-02 +2.9914594611e-01 2.9962731523e-01 5.1099893000e-04 0.0000e+00 1.0000e+00
<vert_displacement>
1.2311035523208540
</vert_displacement>
</event>
<event>
 4   1200 +8.6263000e+09 1.17584200e-02 7.81665300e-03            nan
       50 -1    0    0    0    0 +3.7249037209e-02 +3.4399380516e-02 +1.9963345972e+01 1.9963410984e+01 4.9935713700e-03 0.0000e+00 0.0000e+00
       11 -1    0    0    0    0 -2.8224552087e-18 -2.6065294029e-18 -1.5126739922e-15 5.1100000000e-04 5.1099893000e-04 0.0000e+00 1.0000e+00
       50  1    1    2    0    0 +4.7187568582e-02 +3.0986811613e-02 +1.9851821223e+01 1.9851902117e+01 4.9935713700e-03 0.0000e+00 0.0000e+00
       11  1    1    2    0    0 -9.9385313726e-03 +3.4125689036e-03 +1.1152474871e-01 1.1201986756e-01 5.1099893000e-04 0.0000e+00 1.0000e+00
<vert_displacement>
484.10318467757429
</vert_displacement>
</event>
<event>
 4   1200 +8.6263000e+09 1.79532800e-02 7.81665300e-03            nan
       50 -1    0    0    0    0 -2.4577326343e-03 -1.4714345605e-03 +2.9850709995e+00 2.9850765507e+00 4.9935713700e-03 0.0000e+00 0.0000e+00
       11 -1    0    0    0    0 -1.6567921037e-19 -9.9191471312e-20 +2.0122783056e-16 5.1100000000e-04 5.1099893000e-04 0.0000e+00 1.0000e+00
       50  1    1    2    0    0 -1.6424693155e-02 +8.4218006006e-03 +2.6578793332e+00 2.6579481152e+00 4.9935713700e-03 0.0000e+00 0.0000e+00
       11  1    1    2    0    0 +1.3966960520e-02 -9.8932351611e-03 +3.2719166630e-01 3.2763943551e-01 5.1099893000e-04 0.0000e+00 1.0000e+00
<vert_displacement>
137.82653598110127
</vert_displacement>
</event>
<event>
 4   1200 +8.6263000e+09 2.95990900e-02 7.81665300e-03            nan
       50 -1    0    0    0    0 +3.8920763229e-02 -1.4872339263e-02 +1.5572047865e+01 1.5572104407e+01 4.9935713700e-03 0.0000e+00 0.0000e+00
       11 -1    0    0    0    0 +2.3239624634e-18 -8.8802878780e-19 +9.2980845481e-16 5.1100000000e-04 5.1099893000e-04 0.0000e+00 1.0000e+00
       50  1    1    2    0    0 +1.2730048128e-02 +2.5826581228e-03 +1.4689101847e+01 1.4689108439e+01 4.9935713700e-03 0.0000e+00 0.0000e+00
       11  1    1    2    0    0 +2.6190715101e-02 -1.7454997386e-02 +8.8294601881e-01 8.8350696870e-01 5.1099893000e-04 0.0000e+00 1.0000e+00
<vert_displacement>
4.9048167204014046
</vert_displacement>
</event>
<event>
 4   1200 +8.6263000e+09 7.27081300e-03 7.81665300e-03            nan
       50 -1    0    0    0    0 -7.0130136803e-02 +2.0794375397e-02 +4.5571987930e+01 4.5572046909e+01 4.9935713700e-03 0.0000e+00 0.0000e+00
       11 -1    0    0    0    0 +7.4960679079e-18 -2.2226685585e-18 -4.8710972456e-15 5.1100000000e-04 5.1099893000e-04 0.0000e+00 1.0000e+00
       50  1    1    2    0    0 -7.5369914031e-02 +2.0606164349e-02 +4.5544635443e+01 4.5544702741e+01 4.9935713700e-03 0.0000e+00 0.0000e+00
       11  1    1    2    0    0 +5.2397772276e-03 +1.8821104795e-04 +2.7352486788e-02 2.7855167244e-02 5.1099893000e-04 0.0000e+00 1.0000e+00
<vert_displacement>
170.29580059452357
</vert_displacement>
</event>
<event>
 4   1200 +8.6263000e+09 9.29461400e-03 7.81665300e-03            nan
       50 -1    0    0    0    0 -2.2616169222e-02 -3.8558639444e-03 +9.5782348182e+00 9.5782635967e+00 4.9935713700e-03 0.0000e+00 0.0000e+00
       11 -1    0    0    0    0 -2.5886876594e-18 -4.4134916534e-19 +1.0963420918e-15 5.1100000000e-04 5.1099893000e-04 0.0000e+00 1.0000e+00
       50  1    1    2    0    0 -2.5406539353e-02 -1.1101299791e-02 +9.5177073789e+00 9.5177490730e+00 4.9935713700e-03 0.0000e+00 0.0000e+00
       11  1    1    2    0    0 +2.7903701304e-03 +7.2454358468e-03 +6.0527439371e-02 6.1025523699e-02 5.1099893000e-04 0.0000e+00 1.0000e+00
<vert_displacement>
33.769316986439499
</vert_displacement>
</event>
<event>
 4   1200 +8.6263000e+09 1.97947000e-02 7.81665300e-03            nan
       50 -1    0    0    0    0 -7.1194318109e-03 +3.4149894356e-03 +2.6854670563e+00 2.6854833075e+00 4.9935713700e-03 0.0000e+00 0.0000e+00
       11 -1    0    0    0    0 +5.6106569399e-19 -2.6912729394e-19 -2.1163534923e-16 5.1100000000e-04 5.1099893000e-04 0.0000e+00 1.0000e+00
       50  1    1    2    0    0 -6.9767124119e-03 +2.1999716550e-02 +2.2576020537e+00 2.2577255437e+00 4.9935713700e-03 0.0000e+00 0.0000e+00
       11  1    1    2    0    0 -1.4271939898e-04 -1.8584727114e-02 +4.2786500263e-01 4.2826876380e-01 5.1099893000e-04 0.0000e+00 1.0000e+00
<vert_displacement>
63.559613198420436
</vert_displacement>
</event>
<event>
 4   1200 +8.6263000e+09 7.98138000e-03 7.81665300e-03            nan
       50 -1    0    0    0    0 -6.6827525288e-02 -3.5745057133e-02 +3.1951693259e+01 3.1951783529e+01 4.9935713700e-03 0.0000e+00 0.0000e+00
       11 -1    0    0    0    0 -4.2957820327e-18 -2.2977504184e-18 +2.0539068179e-15 5.1100000000e-04 5.1099893000e-04 0.0000e+00 1.0000e+00
       50  1    1    2    0    0 -6.0625464341e-02 -3.6833914520e-02 +3.1913726966e+01 3.1913806197e+01 4.9935713700e-03 0.0000e+00 0.0000e+00
       11  1    1    2    0    0 -6.2020609469e-03 +1.0888573866e-03 +3.7966292766e-02 3.8488331696e-02 5.1099893000e-04 0.0000e+00 1.0000e+00
<vert_displacement>
272.99552462959093
</vert_displacement>
</event>
<event>
 4   1200 +8.6263000e+09 1.16163000e-02 7.81665300e-03            nan
       50 -1    0    0    0    0 +3.0335554595e-05 -2.9043341518e-03 +1.8964957444e+00 1.8965045427e+00 4.9935713700e-03 0.0000e+00 0.0000e+00
       11 -1    0    0    0    0 +2.5528049921e-21 -2.4440623619e-19 +1.5959437263e-16 5.1100000000e-04 5.1099893000e-04 0.0000e+00 1.0000e+00
       50  1    1    2    0    0 +8.3350650857e-04 +7.7285697934e-03 +1.7818238530e+00 1.7818478062e+00 4.9935713700e-03 0.0000e+00 0.0000e+00
       11  1    1    2    0    0 -8.0317095398e-04 -1.0632903945e-02 +1.1467189141e-01 1.1516773650e-01 5.1099893000e-04 0.0000e+00 1.0000e+00
<vert_displacement>
148.14234762047511
</vert_displacement>
</event>
<event>
 4   1200 +8.6263000e+09 1.19474400e-02 7.81665300e-03            nan
       50 -1    0    0    0    0 -1.6165037451e-01 -7.5766890878e-03 +5.3245172384e+01 5.3245418539e+01 4.9935713700e-03 0.0000e+00 0.0000e+00
       11 -1    0    0    0    0 +1.1038651080e-17 +5.1739086554e-19 -3.6359636124e-15 5.1100000000e-04 5.1099893000e-04 0.0000e+00 1.0000e+00
       50  1    1    2    0    0 -1.5046442184e-01 -6.9260417883e-03 +5.3129684352e+01 5.3129898097e+01 4.9935713700e-03 0.0000e+00 0.0000e+00
       11  1    1    2    0    0 -1.1185952662e-02 -6.5064729948e-04 +1.1548803219e-01 1.1603144219e-01 5.1099893000e-04 0.0000e+00 1.0000e+00
<vert_displacement>
392.93944525613449
</vert_displacement>
</event>
<event>
 4   1200 +8.6263000e+09 1.44493800e-02 7.81665300e-03            nan
       50 -1    0    0    0    0 +5.7869876464e-03 +5.2980262988e-03 +4.5720927116e+00 4.5721021705e+00 4.9935713700e-03 0.0000e+00 0.0000e+00
       11 -1    0    0    0    0 +5.0061284677e-19 +4.5831444437e-19 +3.9551637016e-16 5.1100000000e-04 5.1099893000e-04 0.0000e+00 1.0000e+00
       50  1    1    2    0    0 +1.4519383709e-02 +1.5248612095e-02 +4.3844158463e+00 4.3844692474e+00 4.9935713700e-03 0.0000e+00 0.0000e+00
       11  1    1    2    0    0 -8.7323960630e-03 -9.9505857961e-03 +1.8767686538e-01 1.8814392315e-01 5.1099893000e-04 0.0000e+00 1.0000e+00
<vert_displacement>
8.8659180193785658E-002
</vert_displacement>
</event>
<event>
 4   1200 +8.6263000e+09 8.75016700e-03 7.81665300e-03            nan
       50 -1    0    0    0    0 +6.6684056480e-03 +2.5254188607e-02 +1.4898006911e+01 1.4898030645e+01 4.9935713700e-03 0.0000e+00 0.0000e+00
       11 -1    0    0    0    0 +1.9256400433e-19 +7.2926692541e-19 +4.3021076084e-16 5.1100000000e-04 5.1099893000e-04 0.0000e+00 1.0000e+00
       50  1    1    2    0    0 -3.9465658009e-04 +2.3732012466e-02 +1.4847319805e+01 1.4847339617e+01 4.9935713700e-03 0.0000e+00 0.0000e+00
       11  1    1    2    0    0 +7.0630622280e-03 +1.5221761414e-03 +5.0687106610e-02 5.1202028912e-02 5.1099893000e-04 0.0000e+00 1.0000e+00
<vert_displacement>
44.214972263138520
</vert_displacement>
</event>
<event>
 4   1200 +8.6263000e+09 2.70911700e-02 7.81665300e-03            nan
       50 -1    0    0    0    0 -1.9449252189e-02 -3.9940559440e-03 +1.0422234751e+01 1.0422254860e+01 4.9935713700e-03 0.0000e+00 0.0000e+00
       11 -1    0    0    0    0 -2.7192604767e-19 -5.5842139145e-20 +1.4571650756e-16 5.1100000000e-04 5.1099893000e-04 0.0000e+00 1.0000e+00
       50  1    1    2    0    0 -1.1300581959e-02 -2.9463808548e-02 +9.6747347994e+00 9.6747875529e+00 4.9935713700e-03 0.0000e+00 0.0000e+00
       11  1    1    2    0    0 -8.1486702302e-03 +2.5469752604e-02 +7.4749995122e-01 7.4797830672e-01 5.1099893000e-04 0.0000e+00 1.0000e+00
<vert_displacement>
54.578340001282761
</vert_displacement>
</event>
<event>
 4   1200 +8.6263000e+09 2.40556300e-02 7.81665300e-03            nan
       50 -1    0    0    0    0 -1.6152715175e-03 -6.5897832744e-03 +3.9842139711e+00 3.9842228775e+00 4.9935713700e-03 0.0000e+00 0.0000e+00
       11 -1    0    0    0    0 +1.4909681566e-19 +6.0826659263e-19 -3.6776084366e-16 5.1100000000e-04 5.1099893000e-04 0.0000e+00 1.0000e+00
       50  1    1    2    0    0 -1.7452686465e-03 -2.9046530253e-02 +3.3362981306e+00 3.3364287642e+00 4.9935713700e-03 0.0000e+00 0.0000e+00
       11  1    1    2    0    0 +1.2999712902e-04 +2.2456746978e-02 +6.4791584057e-01 6.4830511333e-01 5.1099893000e-04 0.0000e+00 1.0000e+00
<vert_displacement>
35.988956719484179
</vert_displacement>
</event>
<event>
 4   1200 +8.6263000e+09 1.16029000e-02 7.81665300e-03            nan
       50 -1    0    0    0    0 -5.1568163324e-02 -3.6842030060e-02 +1.6011851201e+01 1.6011977405e+01 4.9935713700e-03 0.0000e+00 0.0000e+00
       11 -1    0    0    0    0 +1.2961490829e-18 +9.2601249289e-19 -4.0245269389e-16 5.1100000000e-04 5.1099893000e-04 0.0000e+00 1.0000e+00
       50  1    1    2    0    0 -4.6365997264e-02 -2.7312889535e-02 +1.5903824869e+01 1.5903916694e+01 4.9935713700e-03 0.0000e+00 0.0000e+00
       11  1    1    2    0    0 -5.2021660602e-03 -9.5291405251e-03 +1.0802633167e-01 1.0857171134e-01 5.1099893000e-04 0.0000e+00 1.0000e+00
<vert_displacement>
202.01790626000974
</vert_displacement>
</event>
<event>
 4   1200 +8.6263000e+09 1.43736000e-02 7.81665300e-03            nan
       50 -1    0    0    0    0 +3.2730039324e-03 -1.1087570119e-02 +7.7824441385e+00 7.7824543270e+00 4.9935713700e-03 0.0000e+00 0.0000e+00
       11 -1    0    0    0    0 -1.9552175452e-19 +6.6234603068e-19 -4.6490537863e-16 5.1100000000e-04 5.1099893000e-04 0.0000e+00 1.0000e+00
       50  1    1    2    0    0 +2.6444828062e-03 +2.6387525119e-03 +7.6004269576e+00 7.6004295161e+00 4.9935713700e-03 0.0000e+00 0.0000e+00
       11  1    1    2    0    0 +6.2852112621e-04 -1.3726322631e-02 +1.8201718096e-01 1.8253581089e-01 5.1099893000e-04 0.0000e+00 1.0000e+00
<vert_displacement>
47.571238461867694
</vert_displacement>
</event>
<event>
 4   1200 +8.6263000e+09 1.93638500e-02 7.81665300e-03            nan
       50 -1    0    0    0    0 +3.0148145878e-02 +7.2815945252e-03 +3.0122621662e+01 3.0122638043e+01 4.9935713700e-03 0.0000e+00 0.0000e+00
       11 -1    0    0    0    0 -4.4446527047e-19 -1.0735041197e-19 -4.4408897445e-16 5.1100000000e-04 5.1099893000e-04 0.0000e+00 1.0000e+00
       50  1    1    2    0    0 +2.9823401813e-02 -1.1511047684e-02 +2.9776143762e+01 2.9776161341e+01 4.9935713700e-03 0.0000e+00 0.0000e+00
       11  1    1    2    0    0 +3.2474406441e-04 +1.8792642209e-02 +3.4647790044e-01 3.4698770219e-01 5.1099893000e-04 0.0000e+00 1.0000e+00
<vert_displacement>
197.19597719101984
</vert_displacement>
</event>
<event>
 4   1200 +8.6263000e+09 1.40541500e-02 7.81665300e-03            nan
       50 -1    0    0    0    0 +3.2105779395e-02 -1.5386837983e-02 +1.0724436188e+01 1.0724496446e+01 4.9935713700e-03 0.0000e+00 0.0000e+00
       11 -1    0    0    0    0 +8.7246073812e-19 -4.1813070034e-19 +2.9143193807e-16 5.1100000000e-04 5.1099893000e-04 0.0000e+00 1.0000e+00
       50  1    1    2    0    0 +3.5182691732e-02 -2.7777420518e-02 +1.0552779007e+01 1.0552875396e+01 4.9935713700e-03 0.0000e+00 0.0000e+00
       11  1    1    2    0    0 -3.0769123362e-03 +1.2390582536e-02 +1.7165718068e-01 1.7213205025e-01 5.1099893000e-04 0.0000e+00 1.0000e+00
<vert_displacement>
183.24747329154476
</vert_displacement>
</event>
<event>
 4   1200 +8.6263000e+09 4.13472900e-02 7.81665300e-03            nan
       50 -1    0    0    0    0 -9.9496832459e-02 -1.3766860943e-02 +2.9021128065e+01 2.9021302318e+01 4.9935713700e-03 0.0000e+00 0.0000e+00
       11 -1    0    0    0    0 -1.2227726894e-17 -1.6918871851e-18 +3.5665701044e-15 5.1100000000e-04 5.1099893000e-04 0.0000e+00 1.0000e+00
       50  1    1    2    0    0 -6.0052563344e-02 -3.6749815794e-02 +2.7266645347e+01 2.7266736700e+01 4.9935713700e-03 0.0000e+00 0.0000e+00
       11  1    1    2    0    0 -3.9444269115e-02 +2.2982954851e-02 +1.7544827179e+00 1.7550766180e+00 5.1099893000e-04 0.0000e+00 1.0000e+00
<vert_displacement>
141.28988670472009
</vert_displacement>
</event>
<event>
 4   1200 +8.6263000e+09 3.19549100e-02 7.81665300e-03            nan
       50 -1    0    0    0    0 +8.1907074303e-02 +4.2279279145e-02 +2.6454320542e+01 2.6454481597e+01 4.9935713700e-03 0.0000e+00 0.0000e+00
       11 -1    0    0    0    0 -5.1131598468e-18 -2.6393411596e-18 -1.6514467245e-15 5.1100000000e-04 5.1099893000e-04 0.0000e+00 1.0000e+00
       50  1    1    2    0    0 +6.4918274653e-02 +6.9020289082e-02 +2.5440695761e+01 2.5440872704e+01 4.9935713700e-03 0.0000e+00 0.0000e+00
       11  1    1    2    0    0 +1.6988799650e-02 -2.6741009937e-02 +1.0136247806e+00 1.0141198932e+00 5.1099893000e-04 0.0000e+00 1.0000e+00
<vert_displacement>
19.617060069564445
</vert_displacement>
</event>
<event>
 4   1200 +8.6263000e+09 9.07989800e-03 7.81665300e-03            nan
       50 -1    0    0    0    0 +6.1750576924e-04 +5.4269954721e-03 +4.7656457285e+00 4.7656514747e+00 4.9935713700e-03 0.0000e+00 0.0000e+00
       11 -1    0    0    0    0 +4.4056024711e-20 +3.8718965641e-19 +3.4000557798e-16 5.1100000000e-04 5.1099893000e-04 0.0000e+00 1.0000e+00
       50  1    1    2    0    0 +3.0107378685e-03 -1.8313254438e-03 +4.7086924680e+00 4.7086964344e+00 4.9935713700e-03 0.0000e+00 0.0000e+00
       11  1    1    2    0    0 -2.3932320993e-03 +7.2583209158e-03 +5.6953260506e-02 5.7466040272e-02 5.1099893000e-04 0.0000e+00 1.0000e+00
<vert_displacement>
132.82517872048240
</vert_displacement>
</event>
<event>
 4   1200 +8.6263000e+09 2.06506000e-02 7.81665300e-03            nan
       50 -1    0    0    0    0 -1.1315600606e-02 +1.1711332544e-02 +6.7374308025e+00 6.7374523339e+00 4.9935713700e-03 0.0000e+00 0.0000e+00
       11 -1    0    0    0    0 -7.4585128964e-19 +7.7193538246e-19 +4.4408791261e-16 5.1100000000e-04 5.1099893000e-04 0.0000e+00 1.0000e+00
       50  1    1    2    0    0 -6.9117202311e-03 +3.0676058303e-02 +6.3183479878e+00 6.3184282083e+00 4.9935713700e-03 0.0000e+00 0.0000e+00
       11  1    1    2    0    0 -4.4038803746e-03 -1.8964725759e-02 +4.1908281468e-01 4.1953512567e-01 5.1099893000e-04 0.0000e+00 1.0000e+00
<vert_displacement>
345.94911065010336
</vert_displacement>
</event>
<event>
 4   1200 +8.6263000e+09 1.33785300e-02 7.81665300e-03            nan
       50 -1    0    0    0    0 +1.9490590306e-02 +3.2640901433e-02 +1.5357818937e+01 1.5357866804e+01 4.9935713700e-03 0.0000e+00 0.0000e+00
       11 -1    0    0    0    0 +5.1075468579e-19 +8.5536113034e-19 +4.0245461335e-16 5.1100000000e-04 5.1099893000e-04 0.0000e+00 1.0000e+00
       50  1    1    2    0    0 +2.2366097551e-02 +4.4343597684e-02 +1.5205539962e+01 1.5205621890e+01 4.9935713700e-03 0.0000e+00 0.0000e+00
       11  1    1    2    0    0 -2.8755072449e-03 -1.1702696251e-02 +1.5227897548e-01 1.5275591359e-01 5.1099893000e-04 0.0000e+00 1.0000e+00
<vert_displacement>
375.42103516153480
</vert_displacement>
</event>
<event>
 4   1200 +8.6263000e+09 1.81057200e-02 7.81665300e-03            nan
       50 -1    0    0    0    0 -1.1950207728e-03 -3.4346878363e-02 +3.7374418076e+01 3.7374434211e+01 4.9935713700e-03 0.0000e+00 0.0000e+00
       11 -1    0    0    0    0 -1.1847653271e-19 -3.4052119850e-18 +3.7053677781e-15 5.1100000000e-04 5.1099893000e-04 0.0000e+00 1.0000e+00
       50  1    1    2    0    0 +1.0065579065e-02 -2.0794700929e-02 +3.7075675499e+01 3.7075683033e+01 4.9935713700e-03 0.0000e+00 0.0000e+00
       11  1    1    2    0    0 -1.1260599838e-02 -1.3552177434e-02 +2.9874257709e-01 2.9926217788e-01 5.1099893000e-04 0.0000e+00 1.0000e+00
<vert_displacement>
362.26001796566555
</vert_displacement>
</event>
<event>
 4   1200 +8.6263000e+09 2.31069100e-02 7.81665300e-03            nan
       50 -1    0    0    0    0 +1.5087535090e-02 -6.3894704349e-03 +8.0472730385e+00 8.0472912680e+00 4.9935713700e-03 0.0000e+00 0.0000e+00
       11 -1    0    0    0    0 +1.5611338812e-19 -6.6112978158e-20 +8.3266554255e-17 5.1100000000e-04 5.1099893000e-04 0.0000e+00 1.0000e+00
       50  1    1    2    0    0 -5.6320472377e-03 +4.9951109441e-03 +7.5137701180e+00 7.5137755485e+00 4.9935713700e-03 0.0000e+00 0.0000e+00
       11  1    1    2    0    0 +2.0719582328e-02 -1.1384581379e-02 +5.3350292047e-01 5.3402671942e-01 5.1099893000e-04 0.0000e+00 1.0000e+00
<vert_displacement>
309.09977847301161
</vert_displacement>
</event>
<event>
 4   1200 +8.6263000e+09 1.33730900e-02 7.81665300e-03            nan
       50 -1    0    0    0    0 +2.0915854409e-02 -2.1820929142e-02 +1.3423756404e+01 1.3423791363e+01 4.9935713700e-03 0.0000e+00 0.0000e+00
       11 -1    0    0    0    0 -7.1356678981e-19 +7.4444438434e-19 -4.5796583668e-16 5.1100000000e-04 5.1099893000e-04 0.0000e+00 1.0000e+00
       50  1    1    2    0    0 +2.9433535541e-02 -3.0362659809e-02 +1.3271400557e+01 1.3271468868e+01 4.9935713700e-03 0.0000e+00 0.0000e+00
       11  1    1    2    0    0 -8.5176811315e-03 +8.5417306673e-03 +1.5235584667e-01 1.5283349499e-01 5.1099893000e-04 0.0000e+00 1.0000e+00
<vert_displacement>
388.77853961300679
</vert_displacement>
</event>
<event>
 4   1200 +8.6263000e+09 1.23230000e-02 7.81665300e-03            nan
       50 -1    0    0    0    0 +1.3446655786e-02 -6.6981243255e-03 +9.9328210765e+00 9.9328336919e+00 4.9935713700e-03 0.0000e+00 0.0000e+00
       11 -1    0    0    0    0 -9.7693296642e-19 +4.8663538139e-19 -7.2164414066e-16 5.1100000000e-04 5.1099893000e-04 0.0000e+00 1.0000e+00
       50  1    1    2    0    0 +5.6612133486e-03 +1.6890942758e-03 +9.8070454521e+00 9.8070485029e+00 4.9935713700e-03 0.0000e+00 0.0000e+00
       11  1    1    2    0    0 +7.7854424370e-03 -8.3872186013e-03 +1.2577562442e-01 1.2629618905e-01 5.1099893000e-04 0.0000e+00 1.0000e+00
<vert_displacement>
8.4061607002185195
</vert_displacement>
</event>
<event>
 4   1200 +8.6263000e+09 9.18406300e-03 7.81665300e-03            nan
       50 -1    0    0    0    0 +1.4934461291e-03 -5.9455475421e-04 +4.5537534749e+00 4.5537564966e+00 4.9935713700e-03 0.0000e+00 0.0000e+00
       11 -1    0    0    0    0 +9.5578356052e-20 -3.8050629939e-20 +2.9143352581e-16 5.1100000000e-04 5.1099893000e-04 0.0000e+00 1.0000e+00
       50  1    1    2    0    0 -6.1847476573e-03 +2.8081723413e-04 +4.4948512071e+00 4.4948582447e+00 4.9935713700e-03 0.0000e+00 0.0000e+00
       11  1    1    2    0    0 +7.6781937863e-03 -8.7537198835e-04 +5.8902267773e-02 5.9409251844e-02 5.1099893000e-04 0.0000e+00 1.0000e+00
<vert_displacement>
492.20889893080226
</vert_displacement>
</event>
<event>
 4   1200 +8.6263000e+09 5.82252800e-03 7.81665300e-03            nan
       50 -1    0    0    0    0 +2.3000403933e-02 -4.1302474631e-02 +2.3759686772e+01 2.3759734328e+01 4.9935713700e-03 0.0000e+00 0.0000e+00
       11 -1    0    0    0    0 -2.1629177833e-18 +3.8840125214e-18 -2.2343194143e-15 5.1100000000e-04 5.1099893000e-04 0.0000e+00 1.0000e+00
       50  1    1    2    0    0 +2.5863007190e-02 -4.2137424291e-02 +2.3750906027e+01 2.3750958012e+01 4.9935713700e-03 0.0000e+00 0.0000e+00
       11  1    1    2    0    0 -2.8626032567e-03 +8.3494966002e-04 +8.7807451184e-03 9.2873162475e-03 5.1099893000e-04 0.0000e+00 1.0000e+00
<vert_displacement>
313.72057906596910
</vert_displacement>
</event>
<event>
 4   1200 +8.6263000e+09 1.99030300e-02 7.81665300e-03            nan
       50 -1    0    0    0    0 -4.3519638920e-02 -3.7413209090e-02 +1.7411682473e+01 1.7411777772e+01 4.9935713700e-03 0.0000e+00 0.0000e+00
       11 -1    0    0    0    0 -1.0752863241e-18 -9.2440822288e-19 +4.3020908508e-16 5.1100000000e-04 5.1099893000e-04 0.0000e+00 1.0000e+00
       50  1    1    2    0    0 -6.1764065994e-02 -3.4711831300e-02 +1.7040503979e+01 1.7040651998e+01 4.9935713700e-03 0.0000e+00 0.0000e+00
       11  1    1    2    0    0 +1.8244427073e-02 -2.7013777897e-03 +3.7117849419e-01 3.7163677459e-01 5.1099893000e-04 0.0000e+00 1.0000e+00
<vert_displacement>
443.00427279644572
</vert_displacement>
</event>
<event>
 4   1200 +8.6263000e+09 1.03651200e-02 7.81665300e-03            nan
       50 -1    0    0    0    0 +1.9833215146e-02 +5.4529352724e-02 +2.7445569128e+01 2.7445630918e+01 4.9935713700e-03 0.0000e+00 0.0000e+00
       11 -1    0    0    0    0 -3.5100087461e-19 -9.6504022959e-19 -4.8572148777e-16 5.1100000000e-04 5.1099893000e-04 0.0000e+00 1.0000e+00
       50  1    1    2    0    0 +2.7667472322e-02 +4.9873590103e-02 +2.7364608016e+01 2.7364667907e+01 4.9935713700e-03 0.0000e+00 0.0000e+00
       11  1    1    2    0    0 -7.8342571763e-03 +4.6557626212e-03 +8.0961111545e-02 8.1474010664e-02 5.1099893000e-04 0.0000e+00 1.0000e+00
<vert_displacement>
481.81027561485996
</vert_displacement>
</event>
<event>
 4   1200 +8.6263000e+09 1.19582200e-02 7.81665300e-03            nan
       50 -1    0    0    0    0 +4.8516575046e-02 -5.9519154765e-03 +2.0258795672e+01 2.0258855256e+01 4.9935713700e-03 0.0000e+00 0.0000e+00
       11 -1    0    0    0    0 +1.0967545108e-18 -1.3454762914e-19 +4.5796566462e-16 5.1100000000e-04 5.1099893000e-04 0.0000e+00 1.0000e+00
       50  1    1    2    0    0 +4.6443066205e-02 +4.7985804975e-03 +2.0142611490e+01 2.0142666222e+01 4.9935713700e-03 0.0000e+00 0.0000e+00
       11  1    1    2    0    0 +2.0735088410e-03 -1.0750495974e-02 +1.1618418198e-01 1.1670003370e-01 5.1099893000e-04 0.0000e+00 1.0000e+00
<vert_displacement>
227.63480940310805
</vert_displacement>
</event>
<event>
 4   1200 +8.6263000e+09 2.21519100e-02 7.81665300e-03            nan
       50 -1    0    0    0    0 -5.2069015811e-02 -2.0524165115e-02 +2.4073016236e+01 2.4073081815e+01 4.9935713700e-03 0.0000e+00 0.0000e+00
       11 -1    0    0    0    0 -2.4013635608e-19 -9.4655106218e-20 +1.1102200241e-16 5.1100000000e-04 5.1099893000e-04 0.0000e+00 1.0000e+00
       50  1    1    2    0    0 -3.6318704998e-02 -4.3687814050e-03 +2.3608327301e+01 2.3608356169e+01 4.9935713700e-03 0.0000e+00 0.0000e+00
       11  1    1    2    0    0 -1.5750310813e-02 -1.6155383710e-02 +4.6468893520e-01 4.6523664552e-01 5.1099893000e-04 0.0000e+00 1.0000e+00
<vert_displacement>
3.6414429240197452
</vert_displacement>
</event>
<event>
 4   1200 +8.6263000e+09 1.70451300e-02 7.81665300e-03            nan
       50 -1    0    0    0    0 +1.6745136326e-03 +6.2833453182e-03 +1.2353975924e+01 1.2353978645e+01 4.9935713700e-03 0.0000e+00 0.0000e+00
       11 -1    0    0    0    0 +1.8810577095e-19 +7.0583690225e-19 +1.3877785885e-15 5.1100000000e-04 5.1099893000e-04 0.0000e+00 1.0000e+00
       50  1    1    2    0    0 -7.8127318291e-04 +2.2264869973e-02 +1.2088351886e+01 1.2088373447e+01 4.9935713700e-03 0.0000e+00 0.0000e+00
       11  1    1    2    0    0 +2.4557868155e-03 -1.5981524655e-02 +2.6562403791e-01 2.6611619766e-01 5.1099893000e-04 0.0000e+00 1.0000e+00
<vert_displacement>
52.569411526746123
</vert_displacement>
</event>
<event>
 4   1200 +8.6263000e+09 9.37476700e-03 7.81665300e-03            nan
       50 -1    0    0    0    0 +4.8388959384e-03 +7.8563888010e-03 +5.4253604220e+00 5.4253705663e+00 4.9935713700e-03 0.0000e+00 0.0000e+00
       11 -1    0    0    0    0 +2.4755248948e-20 +4.0192404027e-20 +2.7755535475e-17 5.1100000000e-04 5.1099893000e-04 0.0000e+00 1.0000e+00
       50  1    1    2    0    0 +1.1175524089e-02 +3.0661291295e-03 +5.3630413316e+00 5.3630561767e+00 4.9935713700e-03 0.0000e+00 0.0000e+00
       11  1    1    2    0    0 -6.3366281505e-03 +4.7902596715e-03 +6.2319090331e-02 6.2825389641e-02 5.1099893000e-04 0.0000e+00 1.0000e+00
<vert_displacement>
487.49931624258852
</vert_displacement>
</event>
<event>
 4   1200 +8.6263000e+09 1.22215200e-02 7.81665300e-03            nan
       50 -1    0    0    0    0 +3.7538904792e-02 +4.7073334277e-02 +1.8451821988e+01 1.8451920895e+01 4.9935713700e-03 0.0000e+00 0.0000e+00
       11 -1    0    0    0    0 +1.4398937564e-18 +1.8056094203e-18 +7.0776341034e-16 5.1100000000e-04 5.1099893000e-04 0.0000e+00 1.0000e+00
       50  1    1    2    0    0 +4.7890972345e-02 +4.3290843913e-02 +1.8329239930e+01 1.8329354298e+01 4.9935713700e-03 0.0000e+00 0.0000e+00
       11  1    1    2    0    0 -1.0352067553e-02 +3.7824903644e-03 +1.2258205875e-01 1.2307759659e-01 5.1099893000e-04 0.0000e+00 1.0000e+00
<vert_displacement>
432.15537654938765
</vert_displacement>
</event>
<event>
 4   1200 +8.6263000e+09 1.06083500e-02 7.81665300e-03            nan
       50 -1    0    0    0    0 +3.8446853840e-02 -1.1751562267e-02 +2.1689287293e+01 2.1689325127e+01 4.9935713700e-03 0.0000e+00 0.0000e+00
       11 -1    0    0    0    0 +9.8645980677e-18 -3.0151865979e-18 +5.5649833510e-15 5.1100000000e-04 5.1099893000e-04 0.0000e+00 1.0000e+00
       50  1    1    2    0    0 +3.5731567946e-02 -2.7030643626e-03 +2.1603237374e+01 2.1603267670e+01 4.9935713700e-03 0.0000e+00 0.0000e+00
       11  1    1    2    0    0 +2.7152858934e-03 -9.0484979043e-03 +8.6049918824e-02 8.6568456966e-02 5.1099893000e-04 0.0000e+00 1.0000e+00
<vert_displacement>
482.28036760171466
</vert_displacement>
</event>
<event>
 4   1200 +8.6263000e+09 9.28921100e-03 7.81665300e-03            nan
       50 -1    0    0    0    0 -2.0435721913e-02 +1.2712964740e-02 +1.1080286466e+01 1.1080313729e+01 4.9935713700e-03 0.0000e+00 0.0000e+00
       11 -1    0    0    0    0 +1.0877952146e-18 -6.7671219384e-19 -5.8980459049e-16 5.1100000000e-04 5.1099893000e-04 0.0000e+00 1.0000e+00
       50  1    1    2    0    0 -2.8065324118e-02 +1.3840094877e-02 +1.1019905647e+01 1.1019951207e+01 4.9935713700e-03 0.0000e+00 0.0000e+00
       11  1    1    2    0    0 +7.6296022052e-03 -1.1271301362e-03 +6.0380819336e-02 6.0873522288e-02 5.1099893000e-04 0.0000e+00 1.0000e+00
<vert_displacement>
360.78654401734360
</vert_displacement>
</event>
<event>
 4   1200 +8.6263000e+09 2.45864400e-02 7.81665300e-03            nan
       50 -1    0    0    0    0 -4.4598647721e-03 +1.2624386995e-02 +1.0662456669e+01 1.0662466245e+01 4.9935713700e-03 0.0000e+00 0.0000e+00
       11 -1    0    0    0    0 +4.5857608583e-19 -1.2980756749e-18 -1.0963443724e-15 5.1100000000e-04 5.1099893000e-04 0.0000e+00 1.0000e+00
       50  1    1    2    0    0 -1.6602076415e-02 +3.2551379860e-02 +1.0061358525e+01 1.0061426118e+01 4.9935713700e-03 0.0000e+00 0.0000e+00
       11  1    1    2    0    0 +1.2142211643e-02 -1.9926992866e-02 +6.0109814454e-01 6.0155112737e-01 5.1099893000e-04 0.0000e+00 1.0000e+00
<vert_displacement>
365.81023566047151
</vert_displacement>
</event>
<event>
 4   1200 +8.6263000e+09 1.69557100e-02 7.81665300e-03            nan
       50 -1    0    0    0    0 -2.0388093618e-03 -5.4062192852e-04 +6.3483114469e+00 6.3483137612e+00 4.9935713700e-03 0.0000e+00 0.0000e+00
       11 -1    0    0    0    0 -1.0473853022e-19 -2.7773046004e-20 +3.2612799548e-16 5.1100000000e-04 5.1099893000e-04 0.0000e+00 1.0000e+00
       50  1    1    2    0    0 -1.8035875787e-02 -2.4900121658e-03 +6.0799936868e+00 6.0800229983e+00 4.9935713700e-03 0.0000e+00 0.0000e+00
       11  1    1    2    0    0 +1.5997066425e-02 +1.9493902373e-03 +2.6831776010e-01 2.6880176295e-01 5.1099893000e-04 0.0000e+00 1.0000e+00
<vert_displacement>
166.98437360745174
</vert_displacement>
</event>
<event>
 4   1200 +8.6263000e+09 1.94024500e-02 7.81665300e-03            nan
       50 -1    0    0    0    0 -1.2908657061e-02 -1.0223448803e-03 +4.0174400058e+00 4.0174639780e+00 4.9935713700e-03 0.0000e+00 0.0000e+00
       11 -1    0    0    0    0 +2.6754750202e-19 +2.1189331906e-20 -8.3266294316e-17 5.1100000000e-04 5.1099893000e-04 0.0000e+00 1.0000e+00
       50  1    1    2    0    0 -4.4800967578e-03 -1.8233943664e-02 +3.6372686160e+00 3.6373205068e+00 4.9935713700e-03 0.0000e+00 0.0000e+00
       11  1    1    2    0    0 -8.4285603029e-03 +1.7211598784e-02 +3.8017138973e-01 3.8065447121e-01 5.1099893000e-04 0.0000e+00 1.0000e+00
<vert_displacement>
395.87962631887399
</vert_displacement>
</event>
<event>
 4   1200 +8.6263000e+09 4.25093100e-02 7.81665300e-03            nan
       50 -1    0    0    0    0 -5.3796938577e-02 +7.3651340547e-03 +2.0963513502e+01 2.0963584417e+01 4.9935713700e-03 0.0000e+00 0.0000e+00
       11 -1    0    0    0    0 +2.5285446337e-18 -3.4617341959e-19 -9.8531962915e-16 5.1100000000e-04 5.1099893000e-04 0.0000e+00 1.0000e+00
       50  1    1    2    0    0 -4.7979254258e-02 +4.8896237417e-02 +1.9043707975e+01 1.9043831842e+01 4.9935713700e-03 0.0000e+00 0.0000e+00
       11  1    1    2    0    0 -5.8176843188e-03 -4.1531103363e-02 +1.9198055265e+00 1.9202635753e+00 5.1099893000e-04 0.0000e+00 1.0000e+00
<vert_displacement>
250.60526153976369
</vert_displacement>
</event>
<event>
 4   1200 +8.6263000e+09 1.20397900e-02 7.81665300e-03            nan
       50 -1    0    0    0    0 +2.4476422507e-03 +2.1872780326e-03 +9.4964982710e-01 9.4966862905e-01 4.9935713700e-03 0.0000e+00 0.0000e+00
       11 -1    0    0    0    0 +3.5768612696e-20 +3.1963780975e-20 +1.3877704903e-17 5.1100000000e-04 5.1099893000e-04 0.0000e+00 1.0000e+00
       50  1    1    2    0    0 +6.6758806982e-03 -8.0809700879e-03 +8.1156884668e-01 8.1165189467e-01 4.9935713700e-03 0.0000e+00 0.0000e+00
       11  1    1    2    0    0 -4.2282384475e-03 +1.0268248120e-02 +1.3808098042e-01 1.3852773438e-01 5.1099893000e-04 0.0000e+00 1.0000e+00
<vert_displacement>
9.6705351318301318
</vert_displacement>
</event>
<event>
 4   1200 +8.6263000e+09 1.46644500e-02 7.81665300e-03            nan
       50 -1    0    0    0    0 -9.6330806344e-03 +1.6954443617e-02 +1.1227729998e+01 1.1227748042e+01 4.9935713700e-03 0.0000e+00 0.0000e+00
       11 -1    0    0    0    0 -4.1078248539e-19 +7.2298662823e-19 +4.7878295728e-16 5.1100000000e-04 5.1099893000e-04 0.0000e+00 1.0000e+00
       50  1    1    2    0    0 -1.0365461413e-02 +2.9097356137e-03 +1.1038528083e+01 1.1038534463e+01 4.9935713700e-03 0.0000e+00 0.0000e+00
       11  1    1    2    0    0 +7.3238077842e-04 +1.4044708003e-02 +1.8920191491e-01 1.8972457914e-01 5.1099893000e-04 0.0000e+00 1.0000e+00
<vert_displacement>
170.39825389397802
</vert_displacement>
</event>
<event>
 4   1200 +8.6263000e+09 1.91412500e-02 7.81665300e-03            nan
       50 -1    0    0    0    0 -2.4602222653e-02 -3.7413777506e-02 +1.4542947234e+01 1.4543017027e+01 4.9935713700e-03 0.0000e+00 0.0000e+00
       11 -1    0    0    0    0 +1.8898876229e-18 +2.8740425625e-18 -1.1171566230e-15 5.1100000000e-04 5.1099893000e-04 0.0000e+00 1.0000e+00
       50  1    1    2    0    0 -3.2487075875e-02 -5.2959498515e-02 +1.4200714804e+01 1.4200851594e+01 4.9935713700e-03 0.0000e+00 0.0000e+00
       11  1    1    2    0    0 +7.8848532215e-03 +1.5545721009e-02 +3.4223243007e-01 3.4267643289e-01 5.1099893000e-04 0.0000e+00 1.0000e+00
<vert_displacement>
436.28205035825681
</vert_displacement>
</event>
<event>
 4   1200 +8.6263000e+09 1.63783100e-02 7.81665300e-03            nan
       50 -1    0    0    0    0 -1.8130824352e-03 -1.7449677155e-03 +3.4994533250e+00 3.4994577925e+00 4.9935713700e-03 0.0000e+00 0.0000e+00
       11 -1    0    0    0    0 -9.3471847783e-20 -8.9960254161e-20 +1.8041119486e-16 5.1100000000e-04 5.1099893000e-04 0.0000e+00 1.0000e+00
       50  1    1    2    0    0 -1.2374223130e-02 -1.2972089802e-02 +3.2423073389e+00 3.2423607467e+00 4.9935713700e-03 0.0000e+00 0.0000e+00
       11  1    1    2    0    0 +1.0561140695e-02 +1.1227122086e-02 +2.5714598612e-01 2.5760804580e-01 5.1099893000e-04 0.0000e+00 1.0000e+00
<vert_displacement>
231.78912731364491
</vert_displacement>
</event>
<event>
 4   1200 +8.6263000e+09 1.39791900e-02 7.81665300e-03            nan
       50 -1    0    0    0    0 +2.7907344290e-02 +7.3062818759e-02 +3.2032186272e+01 3.2032282143e+01 4.9935713700e-03 0.0000e+00 0.0000e+00
       11 -1    0    0    0    0 -3.0347617299e-18 -7.9451575164e-18 -3.4833143567e-15 5.1100000000e-04 5.1099893000e-04 0.0000e+00 1.0000e+00
       50  1    1    2    0    0 +1.4748555971e-02 +7.3753535606e-02 +3.1864502355e+01 3.1864591514e+01 4.9935713700e-03 0.0000e+00 0.0000e+00
       11  1    1    2    0    0 +1.3158788319e-02 -6.9071684661e-04 +1.6768391682e-01 1.6820162865e-01 5.1099893000e-04 0.0000e+00 1.0000e+00
<vert_displacement>
146.67583019687279
</vert_displacement>
</event>
<event>
 4   1200 +8.6263000e+09 9.91578400e-03 7.81665300e-03            nan
       50 -1    0    0    0    0 -2.2437959457e-02 +7.5439265399e-02 +3.3559326658e+01 3.3559419321e+01 4.9935713700e-03 0.0000e+00 0.0000e+00
       11 -1    0    0    0    0 +2.7929017911e-18 -9.3900900330e-18 -4.1772026423e-15 5.1100000000e-04 5.1099893000e-04 0.0000e+00 1.0000e+00
       50  1    1    2    0    0 -2.1952489096e-02 +6.6722069326e-02 +3.3487383601e+01 3.3487457639e+01 4.9935713700e-03 0.0000e+00 0.0000e+00
       11  1    1    2    0    0 -4.8547036128e-04 +8.7171960726e-03 +7.1943056044e-02 7.2472681899e-02 5.1099893000e-04 0.0000e+00 1.0000e+00
<vert_displacement>
114.79562053620303
</vert_displacement>
</event>
<event>
 4   1200 +8.6263000e+09 1.27387300e-02 7.81665300e-03            nan
       50 -1    0    0    0    0 +2.9956789883e-02 +7.5767314502e-03 +1.1857120877e+01 1.1857162192e+01 4.9935713700e-03 0.0000e+00 0.0000e+00
       11 -1    0    0    0    0 -1.1921028085e-18 -3.0150903604e-19 -4.7184318322e-16 5.1100000000e-04 5.1099893000e-04 0.0000e+00 1.0000e+00
       50  1    1    2    0    0 +2.3610532613e-02 -2.5752139704e-03 +1.1721192076e+01 1.1721217203e+01 4.9935713700e-03 0.0000e+00 0.0000e+00
       11  1    1    2    0    0 +6.3462572702e-03 +1.0151945421e-02 +1.3592880066e-01 1.3645598905e-01 5.1099893000e-04 0.0000e+00 1.0000e+00
<vert_displacement>
255.88086710120317
</vert_displacement>
</event>
<event>
 4   1200 +8.6263000e+09 2.48133300e-02 7.81665300e-03            nan
       50 -1    0    0    0    0 -3.6597378492e-04 -1.5936835998e-02 +6.6982583183e+00 6.6982791485e+00 4.9935713700e-03 0.0000e+00 0.0000e+00
       11 -1    0    0    0    0 +9.0988885278e-21 +3.9622371931e-19 -1.6653298209e-16 5.1100000000e-04 5.1099893000e-04 0.0000e+00 1.0000e+00
       50  1    1    2    0    0 +1.7747855549e-02 -3.0661244674e-02 +6.0588863856e+00 6.0589920174e+00 4.9935713700e-03 0.0000e+00 0.0000e+00
       11  1    1    2    0    0 -1.8113829334e-02 +1.4724408676e-02 +6.3937193273e-01 6.3979813106e-01 5.1099893000e-04 0.0000e+00 1.0000e+00
<vert_displacement>
2.7063758851494075
</vert_displacement>
</event>
<event>
 4   1200 +8.6263000e+09 9.96642800e-03 7.81665300e-03            nan
       50 -1    0    0    0    0 -4.5965169644e-04 -1.4497465052e-03 +2.1121499468e+00 2.1121563972e+00 4.9935713700e-03 0.0000e+00 0.0000e+00
       11 -1    0    0    0    0 +1.4345571704e-20 +4.5246090908e-20 -6.5919474998e-17 5.1100000000e-04 5.1099893000e-04 0.0000e+00 1.0000e+00
       50  1    1    2    0    0 +8.0885284695e-03 -1.3166847677e-04 +2.0366096390e+00 2.0366318271e+00 4.9935713700e-03 0.0000e+00 0.0000e+00
       11  1    1    2    0    0 -8.5481801660e-03 -1.3180780284e-03 +7.5540307704e-02 7.6035570108e-02 5.1099893000e-04 0.0000e+00 1.0000e+00
<vert_displacement>
71.472179046716860
</vert_displacement>
</event>
<event>
 4   1200 +8.6263000e+09 2.48536600e-02 7.81665300e-03            nan
       50 -1    0    0    0    0 -5.5494850438e-02 -2.0775745081e-02 +5.4777416450e+01 5.4777448729e+01 4.9935713700e-03 0.0000e+00 0.0000e+00
       11 -1    0    0    0    0 +5.1879704655e-18 +1.9422333969e-18 -5.1209007048e-15 5.1099999999e-04 5.1099893000e-04 0.0000e+00 1.0000e+00
       50  1    1    2    0    0 -5.4819389581e-02 +3.7933273696e-03 +5.4191134110e+01 5.4191162201e+01 4.9935713700e-03 0.0000e+00 0.0000e+00
       11  1    1    2    0    0 -6.7546085686e-04 -2.4569072450e-02 +5.8628233993e-01 5.8679752795e-01 5.1099893000e-04 0.0000e+00 1.0000e+00
<vert_displacement>
290.82601397553373
</vert_displacement>
</event>
<event>
 4   1200 +8.6263000e+09 2.88654700e-02 7.81665300e-03            nan
       50 -1    0    0    0    0 -3.0809498521e-02 -1.3985693366e-02 +1.3431823858e+01 1.3431867403e+01 4.9935713700e-03 0.0000e+00 0.0000e+00
       11 -1    0    0    0    0 -1.2255449252e-18 -5.5632504106e-19 +5.3429313541e-16 5.1100000000e-04 5.1099893000e-04 0.0000e+00 1.0000e+00
       50  1    1    2    0    0 -5.0175058408e-02 -3.1935459837e-02 +1.2587713755e+01 1.2587855255e+01 4.9935713700e-03 0.0000e+00 0.0000e+00
       11  1    1    2    0    0 +1.9365559887e-02 +1.7949766471e-02 +8.4411010313e-01 8.4452314731e-01 5.1099893000e-04 0.0000e+00 1.0000e+00
<vert_displacement>
173.07026461000706
</vert_displacement>
</event>
<event>
 4   1200 +8.6263000e+09 1.07279700e-02 7.81665300e-03            nan
       50 -1    0    0    0    0 +4.9510962268e-02 -7.0502810140e-05 +2.2227743175e+01 2.2227798877e+01 4.9935713700e-03 0.0000e+00 0.0000e+00
       11 -1    0    0    0    0 +2.2256540459e-18 -3.1692953933e-21 +9.9919824341e-16 5.1100000000e-04 5.1099893000e-04 0.0000e+00 1.0000e+00
       50  1    1    2    0    0 +4.1786910212e-02 -5.8582195778e-03 +2.2139192006e+01 2.2139232780e+01 4.9935713700e-03 0.0000e+00 0.0000e+00
       11  1    1    2    0    0 +7.7240520560e-03 +5.7877167677e-03 +8.8551168914e-02 8.9077097402e-02 5.1099893000e-04 0.0000e+00 1.0000e+00
<vert_displacement>
288.60840272047244
</vert_displacement>
</event>
<event>
 4   1200 +8.6263000e+09 2.49899700e-02 7.81665300e-03            nan
       50 -1    0    0    0    0 -7.2696386904e-02 -6.6679933986e-04 +2.2163753487e+01 2.2163873280e+01 4.9935713700e-03 0.0000e+00 0.0000e+00
       11 -1    0    0    0    0 +2.4124776102e-18 +2.2128176467e-20 -7.3551879707e-16 5.1100000000e-04 5.1099893000e-04 0.0000e+00 1.0000e+00
       50  1    1    2    0    0 -9.4489127648e-02 -6.5225099688e-03 +2.1560580060e+01 2.1560788673e+01 4.9935713700e-03 0.0000e+00 0.0000e+00
       11  1    1    2    0    0 +2.1792740745e-02 +5.8557106289e-03 +6.0317342756e-01 6.0359560778e-01 5.1099893000e-04 0.0000e+00 1.0000e+00
<vert_displacement>
204.98321952605221
</vert_displacement>
</event>
<event>
 4   1200 +8.6263000e+09 1.56704300e-02 7.81665300e-03            nan
       50 -1    0    0    0    0 +1.8886768271e-03 -2.1994047753e-02 +8.9014224720e+00 8.9014512449e+00 4.9935713700e-03 0.0000e+00 0.0000e+00
       11 -1    0    0    0    0 +2.9445378789e-20 -3.4289776732e-19 +1.3877745133e-16 5.1100000000e-04 5.1099893000e-04 0.0000e+00 1.0000e+00
       50  1    1    2    0    0 +7.5304808715e-05 -3.6195029614e-02 +8.6799751123e+00 8.6800520144e+00 4.9935713700e-03 0.0000e+00 0.0000e+00
       11  1    1    2    0    0 +1.8133720184e-03 +1.4200981861e-02 +2.2144735969e-01 2.2191023058e-01 5.1099893000e-04 0.0000e+00 1.0000e+00
<vert_displacement>
391.74748721527328
</vert_displacement>
</event>
<event>
 4   1200 +8.6263000e+09 1.56275400e-02 7.81665300e-03            nan
       50 -1    0    0    0    0 -1.2774975367e-02 +4.4243499007e-03 +3.9262494800e+00 3.9262759315e+00 4.9935713700e-03 0.0000e+00 0.0000e+00
       11 -1    0    0    0    0 +2.7092625767e-19 -9.3829735619e-20 -8.3266233221e-17 5.1100000000e-04 5.1099893000e-04 0.0000e+00 1.0000e+00
       50  1    1    2    0    0 -1.8730837703e-02 -9.0396281266e-03 +3.6983419438e+00 3.6984037947e+00 4.9935713700e-03 0.0000e+00 0.0000e+00
       11  1    1    2    0    0 +5.9558623363e-03 +1.3463978027e-02 +2.2790753619e-01 2.2838313680e-01 5.1099893000e-04 0.0000e+00 1.0000e+00
<vert_displacement>
43.351583136997263
</vert_displacement>
</event>
<event>
 4   1200 +8.6263000e+09 2.11728600e-02 7.81665300e-03            nan
       50 -1    0    0    0    0 -8.8322785991e-03 -1.0975640139e-02 +2.8000070882e+01 2.8000074872e+01 4.9935713700e-03 0.0000e+00 0.0000e+00
       11 -1    0    0    0    0 -1.7510308922e-19 -2.1759600005e-19 +5.5511144205e-16 5.1100000000e-04 5.1099893000e-04 0.0000e+00 1.0000e+00
       50  1    1    2    0    0 +1.0494365018e-02 -1.8223283570e-02 +2.7579503203e+01 2.7579511673e+01 4.9935713700e-03 0.0000e+00 0.0000e+00
       11  1    1    2    0    0 -1.9326643617e-02 +7.2476434312e-03 +4.2056767876e-01 4.2107419896e-01 5.1099893000e-04 0.0000e+00 1.0000e+00
<vert_displacement>
322.00149797234798
</vert_displacement>
</event>
<event>
 4   1200 +8.6263000e+09 1.90453600e-02 7.81665300e-03            nan
       50 -1    0    0    0    0 +2.3323951416e-03 -3.3462992379e-03 +5.8235579814e+00 5.8235615509e+00 4.9935713700e-03 0.0000e+00 0.0000e+00
       11 -1    0    0    0    0 -1.5840858718e-19 +2.2726961016e-19 -3.9551685550e-16 5.1100000000e-04 5.1099893000e-04 0.0000e+00 1.0000e+00
       50  1    1    2    0    0 -1.0784151029e-02 +9.8721870476e-03 +5.4716705533e+00 5.4716923650e+00 4.9935713700e-03 0.0000e+00 0.0000e+00
       11  1    1    2    0    0 +1.3116546171e-02 -1.3218486285e-02 +3.5188742817e-01 3.5238018586e-01 5.1099893000e-04 0.0000e+00 1.0000e+00
<vert_displacement>
155.72952573800001
</vert_displacement>
</event>
<event>
 4   1200 +8.6263000e+09 8.33110600e-03 7.81665300e-03            nan
       50 -1    0    0    0    0 +2.0845640731e-02 -5.3411713350e-03 +7.0840951328e+00 7.0841295764e+00 4.9935713700e-03 0.0000e+00 0.0000e+00
       11 -1    0    0    0    0 -9.8007733215e-19 +2.5112017519e-19 -3.3306537074e-16 5.1100000000e-04 5.1099893000e-04 0.0000e+00 1.0000e+00
       50  1    1    2    0    0 +1.5210315521e-02 -1.5465103627e-03 +7.0403253662e+00 7.0403437375e+00 4.9935713700e-03 0.0000e+00 0.0000e+00
       11  1    1    2    0    0 +5.6353252108e-03 -3.7946609723e-03 +4.3769766679e-02 4.4296838908e-02 5.1099893000e-04 0.0000e+00 1.0000e+00
<vert_displacement>
153.79921523823350
</vert_displacement>
</event>
<event>
 4   1200 +8.6263000e+09 2.10053700e-02 7.81665300e-03            nan
       50 -1    0    0    0    0 +4.6511846758e-03 -1.3262276853e-02 +6.0373228991e+00 6.0373413225e+00 4.9935713700e-03 0.0000e+00 0.0000e+00
       11 -1    0    0    0    0 +5.8803196539e-20 -1.6767002961e-19 +7.6327626130e-17 5.1100000000e-04 5.1099893000e-04 0.0000e+00 1.0000e+00
       50  1    1    2    0    0 +9.3077425128e-04 +7.8240401919e-03 +5.5978881784e+00 5.5978959507e+00 4.9935713700e-03 0.0000e+00 0.0000e+00
       11  1    1    2    0    0 +3.7204104245e-03 -2.1086317045e-02 +4.3943472070e-01 4.3995637181e-01 5.1099893000e-04 0.0000e+00 1.0000e+00
<vert_displacement>
355.20968718815112
</vert_displacement>
</event>
<event>
 4   1200 +8.6263000e+09 2.03864300e-02 7.81665300e-03            nan
       50 -1    0    0    0    0 -4.6624483347e-02 -1.3280185348e-03 +1.9790422810e+01 1.9790478406e+01 4.9935713700e-03 0.0000e+00 0.0000e+00
       11 -1    0    0    0    0 +2.1251586293e-18 +6.0531502907e-20 -9.0205370214e-16 5.1100000000e-04 5.1099893000e-04 0.0000e+00 1.0000e+00
       50  1    1    2    0    0 -5.7837565616e-02 +1.4302294783e-02 +1.9400432032e+01 1.9400524161e+01 4.9935713700e-03 0.0000e+00 0.0000e+00
       11  1    1    2    0    0 +1.1213082269e-02 -1.5630313318e-02 +3.8999077756e-01 3.9046524507e-01 5.1099893000e-04 0.0000e+00 1.0000e+00
<vert_displacement>
19.052973780747379
</vert_displacement>
</event>
<event>
 4   1200 +8.6263000e+09 2.24127300e-02 7.81665300e-03            nan
       50 -1    0    0    0    0 +8.8814258303e-02 +6.8126955131e-02 +3.7915170038e+01 3.7915335593e+01 4.9935713700e-03 0.0000e+00 0.0000e+00
       11 -1    0    0    0    0 -6.2089963252e-18 -4.7627489340e-18 -2.6506459203e-15 5.1100000000e-04 5.1099893000e-04 0.0000e+00 1.0000e+00
       50  1    1    2    0    0 +7.9192032790e-02 +8.7399208620e-02 +3.7442126355e+01 3.7442312441e+01 4.9935713700e-03 0.0000e+00 0.0000e+00
       11  1    1    2    0    0 +9.6222255126e-03 -1.9272253489e-02 +4.7304368279e-01 4.7353415286e-01 5.1099893000e-04 0.0000e+00 1.0000e+00
<vert_displacement>
212.30246256424712
</vert_displacement>
</event>
<event>
 4   1200 +8.6263000e+09 1.48462600e-02 7.81665300e-03            nan
       50 -1    0    0    0    0 +1.1443362966e-02 +5.4889682867e-02 +2.5658019488e+01 2.5658081237e+01 4.9935713700e-03 0.0000e+00 0.0000e+00
       11 -1    0    0    0    0 +4.7039569751e-19 +2.2563184210e-18 +1.0547093551e-15 5.1100000000e-04 5.1099893000e-04 0.0000e+00 1.0000e+00
       50  1    1    2    0    0 +4.0030030409e-03 +4.2586749737e-02 +2.5465328123e+01 2.5465364537e+01 4.9935713700e-03 0.0000e+00 0.0000e+00
       11  1    1    2    0    0 +7.4403599251e-03 +1.2302933129e-02 +1.9269136457e-01 1.9322770044e-01 5.1099893000e-04 0.0000e+00 1.0000e+00
<vert_displacement>
65.577529488486206
</vert_displacement>
</event>
<event>
 4   1200 +8.6263000e+09 1.01691800e-02 7.81665300e-03            nan
       50 -1    0    0    0    0 -7.7856189591e-03 +1.4115344447e-02 +6.6118678981e+00 6.6118894346e+00 4.9935713700e-03 0.0000e+00 0.0000e+00
       11 -1    0    0    0    0 +4.2487509712e-19 -7.7029949378e-19 -3.6082141062e-16 5.1100000000e-04 5.1099893000e-04 0.0000e+00 1.0000e+00
       50  1    1    2    0    0 -3.9441821523e-03 +2.1975305210e-02 +6.5341455447e+00 6.5341855962e+00 4.9935713700e-03 0.0000e+00 0.0000e+00
       11  1    1    2    0    0 -3.8414368068e-03 -7.8599607623e-03 +7.7722353342e-02 7.8214838419e-02 5.1099893000e-04 0.0000e+00 1.0000e+00
<vert_displacement>
256.99492183319290
</vert_displacement>
</event>
<event>
 4   1200 +8.6263000e+09 3.12397900e-02 7.81665300e-03            nan
       50 -1    0    0    0    0 +1.3804370324e-02 +1.0683399474e-02 +2.5911306105e+01 2.5911312466e+01 4.9935713700e-03 0.0000e+00 0.0000e+00
       11 -1    0    0    0    0 -5.5450913378e-19 -4.2914254319e-19 -1.0408338494e-15 5.1100000000e-04 5.1099893000e-04 0.0000e+00 1.0000e+00
       50  1    1    2    0    0 -1.5665706872e-03 +3.7308711136e-02 +2.4944673421e+01 2.4944701870e+01 4.9935713700e-03 0.0000e+00 0.0000e+00
       11  1    1    2    0    0 +1.5370941011e-02 -2.6625311662e-02 +9.6663268386e-01 9.6712159508e-01 5.1099893000e-04 0.0000e+00 1.0000e+00
<vert_displacement>
396.22697284323709
</vert_displacement>
</event>
<event>
 4   1200 +8.6263000e+09 3.17967300e-02 7.81665300e-03            nan
       50 -1    0    0    0    0 -2.7820339885e-02 +1.4645261861e-02 +1.0779283617e+01 1.0779330623e+01 4.9935713700e-03 0.0000e+00 0.0000e+00
       11 -1    0    0    0    0 -2.1848456592e-18 +1.1501526199e-18 +8.4654145551e-16 5.1100000000e-04 5.1099893000e-04 0.0000e+00 1.0000e+00
       50  1    1    2    0    0 +1.8773072747e-03 +2.9337821776e-02 +9.7076310058e+00 9.7076768031e+00 4.9935713700e-03 0.0000e+00 0.0000e+00
       11  1    1    2    0    0 -2.9697647160e-02 -1.4692559915e-02 +1.0716526107e+00 1.0721648198e+00 5.1099893000e-04 0.0000e+00 1.0000e+00
<vert_displacement>
451.67975023772055
</vert_displacement>
</event>
<event>
 4   1200 +8.6263000e+09 2.75900200e-02 7.81665300e-03            nan
       50 -1    0    0    0    0 -7.1132258021e-04 -1.3440502408e-02 +5.6533720613e+00 5.6533902883e+00 4.9935713700e-03 0.0000e+00 0.0000e+00
       11 -1    0    0    0    0 +4.5399533137e-20 +8.5782815198e-19 -3.6082146043e-16 5.1100000000e-04 5.1099893000e-04 0.0000e+00 1.0000e+00
       50  1    1    2    0    0 +2.6490548239e-02 -1.2882236346e-02 +4.8050428955e+00 4.8051357801e+00 4.9935713700e-03 0.0000e+00 0.0000e+00
       11  1    1    2    0    0 -2.7201870820e-02 -5.5826606166e-04 +8.4832916576e-01 8.4876550827e-01 5.1099893000e-04 0.0000e+00 1.0000e+00
<vert_displacement>
493.16653301405114
</vert_displacement>
</event>
<event>
 4   1200 +8.6263000e+09 6.99767700e-03 7.81665300e-03            nan
       50 -1    0    0    0    0 +3.0510130633e-02 +2.7169447657e-02 +1.1593989557e+01 1.1594062611e+01 4.9935713700e-03 0.0000e+00 0.0000e+00
       11 -1    0    0    0    0 -5.8979520242e-18 -5.2521603637e-18 -2.2412488167e-15 5.1100000000e-04 5.1099893000e-04 0.0000e+00 1.0000e+00
       50  1    1    2    0    0 +2.5835653840e-02 +2.8774588157e-02 +1.1570434512e+01 1.1570500213e+01 4.9935713700e-03 0.0000e+00 0.0000e+00
       11  1    1    2    0    0 +4.6744767934e-03 -1.6051405001e-03 +2.3555045356e-02 2.4073397993e-02 5.1099893000e-04 0.0000e+00 1.0000e+00
<vert_displacement>
182.72724940348914
</vert_displacement>
</event>
<event>
 4   1200 +8.6263000e+09 6.90120800e-03 7.81665300e-03            nan
       50 -1    0    0    0    0 +1.2844136951e-02 +2.5942335379e-03 +5.1621239641e+00 5.1621430103e+00 4.9935713700e-03 0.0000e+00 0.0000e+00
       11 -1    0    0    0    0 -1.7264950837e-20 -3.4871408382e-21 -6.9388715488e-18 5.1100000000e-04 5.1099893000e-04 0.0000e+00 1.0000e+00
       50  1    1    2    0    0 +1.5967591442e-02 -9.6453516829e-04 +5.1398164484e+00 5.1398437674e+00 4.9935713700e-03 0.0000e+00 0.0000e+00
       11  1    1    2    0    0 -3.1234544918e-03 +3.5587687062e-03 +2.2307515674e-02 2.2810242833e-02 5.1099893000e-04 0.0000e+00 1.0000e+00
<vert_displacement>
116.73780142238907
</vert_displacement>
</event>
<event>
 4   1200 +8.6263000e+09 3.47418400e-02 7.81665300e-03            nan
       50 -1    0    0    0    0 +2.3431282918e-02 -8.0240705860e-03 +1.4751017108e+01 1.4751038745e+01 4.9935713700e-03 0.0000e+00 0.0000e+00
       11 -1    0    0    0    0 +7.7154591502e-19 -2.6421681238e-19 +4.8572188863e-16 5.1100000000e-04 5.1099893000e-04 0.0000e+00 1.0000e+00
       50  1    1    2    0    0 +3.0040460350e-02 +2.5947424568e-02 +1.3485644223e+01 1.3485703568e+01 4.9935713700e-03 0.0000e+00 0.0000e+00
       11  1    1    2    0    0 -6.6091774321e-03 -3.3971495154e-02 +1.2653728850e+00 1.2658461766e+00 5.1099893000e-04 0.0000e+00 1.0000e+00
<vert_displacement>
372.90911785336795
</vert_displacement>
</event>
<event>
 4   1200 +8.6263000e+09 1.04628100e-02 7.81665300e-03            nan
       50 -1    0    0    0    0 +1.1154458180e-02 +4.0475136721e-03 +1.1969685173e+01 1.1969692097e+01 4.9935713700e-03 0.0000e+00 0.0000e+00
       11 -1    0    0    0    0 +1.1510012304e-18 +4.1765302640e-19 +1.2351225080e-15 5.1100000000e-04 5.1099893000e-04 0.0000e+00 1.0000e+00
       50  1    1    2    0    0 +2.7274935328e-03 +7.8694339978e-03 +1.1886392346e+01 1.1886396313e+01 4.9935713700e-03 0.0000e+00 0.0000e+00
       11  1    1    2    0    0 +8.4269646472e-03 -3.8219203257e-03 +8.3292827626e-02 8.3806784105e-02 5.1099893000e-04 0.0000e+00 1.0000e+00
<vert_displacement>
425.87363785022643
</vert_displacement>
</event>
<event>
 4   1200 +8.6263000e+09 1.48407800e-02 7.81665300e-03            nan
       50 -1    0    0    0    0 -1.9953267606e-02 -8.0599530178e-03 +9.8152226365e+00 9.8152474974e+00 4.9935713700e-03 0.0000e+00 0.0000e+00
       11 -1    0    0    0    0 -2.5108633515e-18 -1.0142419300e-18 +1.2351201463e-15 5.1100000000e-04 5.1099893000e-04 0.0000e+00 1.0000e+00
       50  1    1    2    0    0 -2.0386581330e-02 +6.0509579455e-03 +9.6202307399e+00 9.6202555398e+00 4.9935713700e-03 0.0000e+00 0.0000e+00
       11  1    1    2    0    0 +4.3331372469e-04 -1.4110910963e-02 +1.9499189656e-01 1.9550295755e-01 5.1099893000e-04 0.0000e+00 1.0000e+00
<vert_displacement>
142.85959366598900
</vert_displacement>
</event>
<event>
 4   1200 +8.6263000e+09 7.91797600e-03 7.81665300e-03            nan
       50 -1    0    0    0    0 -2.4677761711e-02 +4.1977203328e-02 +1.6268227429e+01 1.6268301069e+01 4.9935713700e-03 0.0000e+00 0.0000e+00
       11 -1    0    0    0    0 -1.0104738198e-18 +1.7188295068e-18 +6.6613083081e-16 5.1100000000e-04 5.1099893000e-04 0.0000e+00 1.0000e+00
       50  1    1    2    0    0 -2.8042076949e-02 +3.6776870657e-02 +1.6231204213e+01 1.6231270870e+01 4.9935713700e-03 0.0000e+00 0.0000e+00
       11  1    1    2    0    0 +3.3643152387e-03 +5.2003326714e-03 +3.7023215366e-02 3.7541199673e-02 5.1099893000e-04 0.0000e+00 1.0000e+00
<vert_displacement>
128.23254687741303
</vert_displacement>
</event>
<event>
 4   1200 +8.6263000e+09 2.55513600e-02 7.81665300e-03            nan
       50 -1    0    0    0    0 +1.8563024269e-02 -1.5357529836e-02 +1.0576724458e+01 1.0576753077e+01 4.9935713700e-03 0.0000e+00 0.0000e+00
       11 -1    0    0    0    0 +8.8901588828e-19 -7.3549912079e-19 +5.0653794086e-16 5.1100000000e-04 5.1099893000e-04 0.0000e+00 1.0000e+00
       50  1    1    2    0    0 +4.0334851665e-02 -4.2803129357e-03 +9.9215812421e+00 9.9216654096e+00 4.9935713700e-03 0.0000e+00 0.0000e+00
       11  1    1    2    0    0 -2.1771827395e-02 -1.1077216901e-02 +6.5514321639e-01 6.5559866710e-01 5.1099893000e-04 0.0000e+00 1.0000e+00
<vert_displacement>
460.97362423332982
</vert_displacement>
</event>
<event>
 4   1200 +8.6263000e+09 1.20703700e-02 7.81665300e-03            nan
       50 -1    0    0    0    0 -2.0549815264e-02 -3.1601131938e-03 +6.8491601848e+00 6.8491935623e+00 4.9935713700e-03 0.0000e+00 0.0000e+00
       11 -1    0    0    0    0 +3.3310321740e-19 +5.1224006574e-20 -1.1102179094e-16 5.1100000000e-04 5.1099893000e-04 0.0000e+00 1.0000e+00
       50  1    1    2    0    0 -2.5290952529e-02 +6.6281760190e-03 +6.7288624697e+00 6.7289151159e+00 4.9935713700e-03 0.0000e+00 0.0000e+00
       11  1    1    2    0    0 +4.7411372644e-03 -9.7882892128e-03 +1.2029771508e-01 1.2078944640e-01 5.1099893000e-04 0.0000e+00 1.0000e+00
<vert_displacement>
294.29264359329619
</vert_displacement>
</event>
<event>
 4   1200 +8.6263000e+09 1.77130900e-02 7.81665300e-03            nan
       50 -1    0    0    0    0 -5.3592235810e-03 +2.2612122317e-03 +8.2767040321e+00 8.2767075825e+00 4.9935713700e-03 0.0000e+00 0.0000e+00
       11 -1    0    0    0    0 -7.7279274641e-19 +3.2606372628e-19 +1.1934894567e-15 5.1100000000e-04 5.1099893000e-04 0.0000e+00 1.0000e+00
       50  1    1    2    0    0 +7.6506039574e-03 -8.9751284478e-03 +7.9836933166e+00 7.9837035888e+00 4.9935713700e-03 0.0000e+00 0.0000e+00
       11  1    1    2    0    0 -1.3009827538e-02 +1.1236340680e-02 +2.9301071552e-01 2.9351499364e-01 5.1099893000e-04 0.0000e+00 1.0000e+00
<vert_displacement>
254.38809716542482
</vert_displacement>
</event>
<event>
 4   1200 +8.6263000e+09 2.05715200e-02 7.81665300e-03            nan
       50 -1    0    0    0    0 -6.6621410302e-02 +2.3174456464e-02 +2.8176282823e+01 2.8176371557e+01 4.9935713700e-03 0.0000e+00 0.0000e+00
       11 -1    0    0    0    0 -2.2969262234e-19 +7.9899264403e-20 +9.7144210249e-17 5.1100000000e-04 5.1099893000e-04 0.0000e+00 1.0000e+00
       50  1    1    2    0    0 -6.2918134922e-02 +3.0861594798e-03 +2.7781072301e+01 2.7781144169e+01 4.9935713700e-03 0.0000e+00 0.0000e+00
       11  1    1    2    0    0 -3.7032753793e-03 +2.0088296984e-02 +3.9521052172e-01 3.9573838773e-01 5.1099893000e-04 0.0000e+00 1.0000e+00
<vert_displacement>
180.18539087198531
</vert_displacement>
</event>
<event>
 4   1200 +8.6263000e+09 5.99264500e-03 7.81665300e-03            nan
       50 -1    0    0    0    0 +2.4665453326e-02 -1.7721002175e-02 +9.4235868980e+00 9.4236371629e+00 4.9935713700e-03 0.0000e+00 0.0000e+00
       11 -1    0    0    0    0 +0.0000000000e+00 +0.0000000000e+00 +0.0000000000e+00 5.1100000000e-04 5.1099893000e-04 0.0000e+00 1.0000e+00
       50  1    1    2    0    0 +2.2058011208e-02 -1.9780025871e-02 +9.4128371446e+00 9.4128850971e+00 4.9935713700e-03 0.0000e+00 0.0000e+00
       11  1    1    2    0    0 +2.6074421185e-03 +2.0590236959e-03 +1.0749753429e-02 1.1263065820e-02 5.1099893000e-04 0.0000e+00 1.0000e+00
<vert_displacement>
274.87197222621711
</vert_displacement>
</event>
<event>
 4   1200 +8.6263000e+09 6.43942600e-03 7.81665300e-03            nan
       50 -1    0    0    0    0 -5.8836172122e-02 -1.2719553794e-02 +2.5431455515e+01 2.5431527246e+01 4.9935713700e-03 0.0000e+00 0.0000e+00
       11 -1    0    0    0    0 -8.2513563356e-18 -1.7838273124e-18 +3.5665814757e-15 5.1100000000e-04 5.1099893000e-04 0.0000e+00 1.0000e+00
       50  1    1    2    0    0 -5.7559297768e-02 -8.8392178180e-03 +2.5415275113e+01 2.5415342319e+01 4.9935713700e-03 0.0000e+00 0.0000e+00
       11  1    1    2    0    0 -1.2768743536e-03 -3.8803359765e-03 +1.6180402253e-02 1.6695926221e-02 5.1099893000e-04 0.0000e+00 1.0000e+00
<vert_displacement>
448.15010200677926
</vert_displacement>
</event>
<event>
 4   1200 +8.6263000e+09 2.28981500e-02 7.81665300e-03            nan
       50 -1    0    0    0    0 +1.7822926297e-03 +5.6523741753e-03 +2.2592817213e+00 2.2592950135e+00 4.9935713700e-03 0.0000e+00 0.0000e+00
       11 -1    0    0    0    0 -6.2949924807e-20 -1.9963979168e-19 -7.9797005332e-17 5.1100000000e-04 5.1099893000e-04 0.0000e+00 1.0000e+00
       50  1    1    2    0    0 +2.3263148507e-02 +2.1690414983e-04 +1.5374306368e+00 1.5376147501e+00 4.9935713700e-03 0.0000e+00 0.0000e+00
       11  1    1    2    0    0 -2.1480855878e-02 +5.4354700255e-03 +7.2185108458e-01 7.2219126340e-01 5.1099893000e-04 0.0000e+00 1.0000e+00
<vert_displacement>
89.261533483596963
</vert_displacement>
</event>
<event>
 4   1200 +8.6263000e+09 2.28348000e-02 7.81665300e-03            nan
       50 -1    0    0    0    0 +3.8491711063e-03 -2.0205798803e-02 +9.2083425821e+00 9.2083669092e+00 4.9935713700e-03 0.0000e+00 0.0000e+00
       11 -1    0    0    0    0 -2.8715085067e-19 +1.5073666913e-18 -6.8694878267e-16 5.1100000000e-04 5.1099893000e-04 0.0000e+00 1.0000e+00
       50  1    1    2    0    0 +3.8902467077e-03 -4.1357035890e-02 +8.6936218993e+00 8.6937225745e+00 4.9935713700e-03 0.0000e+00 0.0000e+00
       11  1    1    2    0    0 -4.1075601446e-05 +2.1151237088e-02 +5.1472068274e-01 5.1515533470e-01 5.1099893000e-04 0.0000e+00 1.0000e+00
<vert_displacement>
191.39988787464375
</vert_displacement>
</event>
<event>
 4   1200 +8.6263000e+09 7.38370500e-03 7.81665300e-03            nan
       50 -1    0    0    0    0 +1.0856688038e-02 -7.3826441923e-03 +4.1241186314e+00 4.1241425524e+00 4.9935713700e-03 0.0000e+00 0.0000e+00
       11 -1    0    0    0    0 -1.0959872610e-19 +7.4528106167e-20 -4.1633152458e-17 5.1100000000e-04 5.1099893000e-04 0.0000e+00 1.0000e+00
       50  1    1    2    0    0 +1.3527921262e-02 -1.2024237493e-02 +4.0949456718e+00 4.0949887152e+00 4.9935713700e-03 0.0000e+00 0.0000e+00
       11  1    1    2    0    0 -2.6712332234e-03 +4.6415933010e-03 +2.9172959562e-02 2.9664837178e-02 5.1099893000e-04 0.0000e+00 1.0000e+00
<vert_displacement>
3.4415020838220469
</vert_displacement>
</event>
<event>
 4   1200 +8.6263000e+09 5.98157600e-03 7.81665300e-03            nan
       50 -1    0    0    0    0 -1.2806449644e-01 +1.2489470362e-01 +5.5165390146e+01 5.5165680401e+01 4.9935713700e-03 0.0000e+00 0.0000e+00
       11 -1    0    0    0    0 +2.8350628026e-18 -2.7648906474e-18 -1.2212389065e-15 5.1100000000e-04 5.1099893000e-04 0.0000e+00 1.0000e+00
       50  1    1    2    0    0 -1.3078142242e-01 +1.2669474520e-01 +5.5154767497e+01 5.5155068288e+01 4.9935713700e-03 0.0000e+00 0.0000e+00
       11  1    1    2    0    0 +2.7169259734e-03 -1.8000415813e-03 +1.0622649585e-02 1.1123112898e-02 5.1099893000e-04 0.0000e+00 1.0000e+00
<vert_displacement>
417.01160564582875
</vert_displacement>
</event>
<event>
 4   1200 +8.6263000e+09 6.48859200e-02 7.81665300e-03            nan
       50 -1    0    0    0    0 +4.8959372263e-02 +2.5899179568e-02 +1.6603124443e+01 1.6603217579e+01 4.9935713700e-03 0.0000e+00 0.0000e+00
       11 -1    0    0    0    0 -8.5937583762e-19 -4.5460405447e-19 -2.9143192233e-16 5.1100000000e-04 5.1099893000e-04 0.0000e+00 1.0000e+00
       50  1    1    2    0    0 +8.3122897676e-02 -9.1840260125e-03 +7.4075943573e+00 7.4080680923e+00 4.9935713700e-03 0.0000e+00 0.0000e+00
       11  1    1    2    0    0 -3.4163525413e-02 +3.5083205581e-02 +9.1955300853e+00 9.1956604868e+00 5.1099893000e-04 0.0000e+00 1.0000e+00
<vert_displacement>
193.17481122013464
</vert_displacement>
</event>
<event>
 4   1200 +8.6263000e+09 8.97384200e-03 7.81665300e-03            nan
       50 -1    0    0    0    0 +4.2730717290e-03 -4.4668566171e-02 +1.9239697618e+01 1.9239750594e+01 4.9935713700e-03 0.0000e+00 0.0000e+00
       11 -1    0    0    0    0 -6.3185127127e-19 +6.6050588689e-18 -2.8449387630e-15 5.1100000000e-04 5.1099893000e-04 0.0000e+00 1.0000e+00
       50  1    1    2    0    0 -1.5779540698e-03 -3.9904984860e-02 +1.9185156160e+01 1.9185198376e+01 4.9935713700e-03 0.0000e+00 0.0000e+00
       11  1    1    2    0    0 +5.8510257988e-03 -4.7635813113e-03 +5.4541458098e-02 5.5063218042e-02 5.1099893000e-04 0.0000e+00 1.0000e+00
<vert_displacement>
288.02604333588414
</vert_displacement>
</event>
<event>
 4   1200 +8.6263000e+09 3.10050400e-02 7.81665300e-03            nan
       50 -1    0    0    0    0 +1.0924693094e-02 -5.6558899549e-03 +4.6019844156e+00 4.6020035675e+00 4.9935713700e-03 0.0000e+00 0.0000e+00
       11 -1    0    0    0    0 -9.0597348318e-19 +4.6903709595e-19 -3.8163780114e-16 5.1100000000e-04 5.1099893000e-04 0.0000e+00 1.0000e+00
       50  1    1    2    0    0 -2.0372760094e-02 +7.5654320814e-03 +3.3351241821e+00 3.3351987244e+00 4.9935713700e-03 0.0000e+00 0.0000e+00
       11  1    1    2    0    0 +3.1297453188e-02 -1.3221322036e-02 +1.2668602335e+00 1.2673158431e+00 5.1099893000e-04 0.0000e+00 1.0000e+00
<vert_displacement>
131.01240118741327
</vert_displacement>
</event>
<event>
 4   1200 +8.6263000e+09 1.45030200e-02 7.81665300e-03            nan
       50 -1    0    0    0    0 -2.0119964107e-03 +7.5227407818e-03 +5.0360034228e+00 5.0360119191e+00 4.9935713700e-03 0.0000e+00 0.0000e+00
       11 -1    0    0    0    0 -1.0534514120e-19 +3.9387952466e-19 +2.6367765312e-16 5.1100000000e-04 5.1099893000e-04 0.0000e+00 1.0000e+00
       50  1    1    2    0    0 +1.1492007352e-02 +9.4933152460e-03 +4.8474852621e+00 4.8475107521e+00 4.9935713700e-03 0.0000e+00 0.0000e+00
       11  1    1    2    0    0 -1.3504003763e-02 -1.9705744643e-03 +1.8851816064e-01 1.8901216705e-01 5.1099893000e-04 0.0000e+00 1.0000e+00
<vert_displacement>
300.04555095031606
</vert_displacement>
</event>
<event>
 4   1200 +8.6263000e+09 5.56139800e-03 7.81665300e-03            nan
       50 -1    0    0    0    0 -1.6957048714e-02 +8.7267856328e-03 +6.6746296740e+00 6.6746587867e+00 4.9935713700e-03 0.0000e+00 0.0000e+00
       11 -1    0    0    0    0 +1.5160377606e-18 -7.8021457453e-19 -5.9674243993e-16 5.1100000000e-04 5.1099893000e-04 0.0000e+00 1.0000e+00
       50  1    1    2    0    0 -1.4640502133e-02 +9.5532883833e-03 +6.6687644477e+00 6.6687892307e+00 4.9935713700e-03 0.0000e+00 0.0000e+00
       11  1    1    2    0    0 -2.3165465815e-03 -8.2650275054e-04 +5.8652262943e-03 6.3805559516e-03 5.1099893000e-04 0.0000e+00 1.0000e+00
<vert_displacement>
145.02189644200951
</vert_displacement>
</event>
<event>
 4   1200 +8.6263000e+09 6.79757200e-03 7.81665300e-03            nan
       50 -1    0    0    0    0 +8.2227836673e-03 +5.1545054662e-03 +1.3428667854e+01 1.3428672290e+01 4.9935713700e-03 0.0000e+00 0.0000e+00
       11 -1    0    0    0    0 +8.9651698419e-19 +5.6198750722e-19 +1.4641062314e-15 5.1100000000e-04 5.1099893000e-04 0.0000e+00 1.0000e+00
       50  1    1    2    0    0 +6.8303753899e-03 +9.5473912054e-03 +1.3407820469e+01 1.3407826538e+01 4.9935713700e-03 0.0000e+00 0.0000e+00
       11  1    1    2    0    0 +1.3924082773e-03 -4.3928857392e-03 +2.0847385760e-02 2.1356752067e-02 5.1099893000e-04 0.0000e+00 1.0000e+00
<vert_displacement>
40.297786984097485
</vert_displacement>
</event>
<event>
 4   1200 +8.6263000e+09 2.16253900e-02 7.81665300e-03            nan
       50 -1    0    0    0    0 -7.7222141933e-03 +7.0037431919e-03 +3.8273684701e+00 3.8273859260e+00 4.9935713700e-03 0.0000e+00 0.0000e+00
       11 -1    0    0    0    0 -4.5500227259e-19 +4.1266908547e-19 +2.2551321529e-16 5.1100000000e-04 5.1099893000e-04 0.0000e+00 1.0000e+00
       50  1    1    2    0    0 +1.1633741867e-02 +1.6387019856e-02 +3.3287708786e+00 3.3288352883e+00 4.9935713700e-03 0.0000e+00 0.0000e+00
       11  1    1    2    0    0 -1.9355956060e-02 -9.3832766645e-03 +4.9859759144e-01 4.9906163771e-01 5.1099893000e-04 0.0000e+00 1.0000e+00
<vert_displacement>
410.27361361178822
</vert_displacement>
</event>
<event>
 4   1200 +8.6263000e+09 1.76505100e-02 7.81665300e-03            nan
       50 -1    0    0    0    0 -7.7938073548e-02 -6.4731558728e-02 +4.5635386216e+01 4.5635498951e+01 4.9935713700e-03 0.0000e+00 0.0000e+00
       11 -1    0    0    0    0 -2.6782157056e-18 -2.2243952069e-18 +1.5681861577e-15 5.1100000000e-04 5.1099893000e-04 0.0000e+00 1.0000e+00
       50  1    1    2    0    0 -8.9619523818e-02 -5.2556021018e-02 +4.5353198684e+01 4.5353317956e+01 4.9935713700e-03 0.0000e+00 0.0000e+00
       11  1    1    2    0    0 +1.1681450270e-02 -1.2175537710e-02 +2.8218753186e-01 2.8269199539e-01 5.1099893000e-04 0.0000e+00 1.0000e+00
<vert_displacement>
62.104486239692029
</vert_displacement>
</event>
<event>
 4   1200 +8.6263000e+09 2.47024400e-02 7.81665300e-03            nan
       50 -1    0    0    0    0 +1.9711915326e-02 +6.6719844957e-03 +7.5388775224e+00 7.5389078989e+00 4.9935713700e-03 0.0000e+00 0.0000e+00
       11 -1    0    0    0    0 -3.0480354338e-18 -1.0316828588e-18 -1.1657297345e-15 5.1100000000e-04 5.1099893000e-04 0.0000e+00 1.0000e+00
       50  1    1    2    0    0 -5.4807130002e-03 +1.1617034587e-02 +6.9143018132e+00 6.9143155477e+00 4.9935713700e-03 0.0000e+00 0.0000e+00
       11  1    1    2    0    0 +2.5192628326e-02 -4.9450500910e-03 +6.2457570915e-01 6.2510335116e-01 5.1099893000e-04 0.0000e+00 1.0000e+00
<vert_displacement>
37.902108443072727
</vert_displacement>
</event>
<event>
 4   1200 +8.6263000e+09 6.84991900e-03 7.81665300e-03            nan
       50 -1    0    0    0    0 +7.3565854980e-03 -6.8280912474e-03 +9.8253337554e+00 9.8253401510e+00 4.9935713700e-03 0.0000e+00 0.0000e+00
       11 -1    0    0    0    0 +2.4937920312e-19 -2.3146389783e-19 +3.3306673360e-16 5.1100000000e-04 5.1099893000e-04 0.0000e+00 1.0000e+00
       50  1    1    2    0    0 +1.1808110430e-02 -5.3898831758e-03 +9.8037704983e+00 9.8037803627e+00 4.9935713700e-03 0.0000e+00 0.0000e+00
       11  1    1    2    0    0 -4.4515249322e-03 -1.4382080716e-03 +2.1563257095e-02 2.2070788231e-02 5.1099893000e-04 0.0000e+00 1.0000e+00
<vert_displacement>
202.18452929987376
</vert_displacement>
</event>
<event>
 4   1200 +8.6263000e+09 4.15454800e-02 7.81665300e-03            nan
       50 -1    0    0    0    0 +3.3264861656e-02 +1.3329731382e-02 +1.3220075712e+01 1.3220125226e+01 4.9935713700e-03 0.0000e+00 0.0000e+00
       11 -1    0    0    0    0 -1.9205831572e-19 -7.6960661516e-20 -7.6327552512e-17 5.1100000000e-04 5.1099893000e-04 0.0000e+00 1.0000e+00
       50  1    1    2    0    0 +6.4103946925e-02 +3.1917768560e-02 +1.1266148820e+01 1.1266377511e+01 4.9935713700e-03 0.0000e+00 0.0000e+00
       11  1    1    2    0    0 -3.0839085269e-02 -1.8588037178e-02 +1.9539268921e+00 1.9542587150e+00 5.1099893000e-04 0.0000e+00 1.0000e+00
<vert_displacement>
222.24855121516720
</vert_displacement>
</event>
<event>
 4   1200 +8.6263000e+09 1.62793400e-02 7.81665300e-03            nan
       50 -1    0    0    0    0 +1.9008529679e-02 +1.1794515023e-02 +6.9266919798e+00 6.9267299033e+00 4.9935713700e-03 0.0000e+00 0.0000e+00
       11 -1    0    0    0    0 -1.2758083334e-18 -7.9162043616e-19 -4.6490346703e-16 5.1100000000e-04 5.1099893000e-04 0.0000e+00 1.0000e+00
       50  1    1    2    0    0 +3.2290103111e-02 +1.8123757691e-02 +6.6831218431e+00 6.6832262887e+00 4.9935713700e-03 0.0000e+00 0.0000e+00
       11  1    1    2    0    0 -1.3281573432e-02 -6.3292426681e-03 +2.4357013674e-01 2.4401461459e-01 5.1099893000e-04 0.0000e+00 1.0000e+00
<vert_displacement>
322.75254959879516
</vert_displacement>
</event>
<event>
 4   1200 +8.6263000e+09 3.56260400e-02 7.81665300e-03            nan
       50 -1    0    0    0    0 -1.6788344643e-02 +7.2989193869e-02 +3.0190498997e+01 3.0190592308e+01 4.9935713700e-03 0.0000e+00 0.0000e+00
       11 -1    0    0    0    0 -2.3460111668e-18 +1.0199544238e-17 +4.2188345120e-15 5.1100000000e-04 5.1099893000e-04 0.0000e+00 1.0000e+00
       50  1    1    2    0    0 +1.6211373202e-02 +5.5723097550e-02 +2.8919483164e+01 2.8919541824e+01 4.9935713700e-03 0.0000e+00 0.0000e+00
       11  1    1    2    0    0 -3.2999717845e-02 +1.7266096319e-02 +1.2710158330e+00 1.2715614843e+00 5.1099893000e-04 0.0000e+00 1.0000e+00
<vert_displacement>
70.270955722640949
</vert_displacement>
</event>
<event>
 4   1200 +8.6263000e+09 1.82964100e-02 7.81665300e-03            nan
       50 -1    0    0    0    0 -7.4186389916e-03 -6.8179078451e-03 +2.8619728286e+00 2.8619949209e+00 4.9935713700e-03 0.0000e+00 0.0000e+00
       11 -1    0    0    0    0 -4.4066886978e-19 -4.0498530091e-19 +1.7000184712e-16 5.1100000000e-04 5.1099893000e-04 0.0000e+00 1.0000e+00
       50  1    1    2    0    0 -2.6059490776e-03 +1.1164554458e-02 +2.5168319280e+00 2.5168629934e+00 4.9935713700e-03 0.0000e+00 0.0000e+00
       11  1    1    2    0    0 -4.8126899140e-03 -1.7982462303e-02 +3.4514090065e-01 3.4564292754e-01 5.1099893000e-04 0.0000e+00 1.0000e+00
<vert_displacement>
458.12077109077836
</vert_displacement>
</event>
<event>
 4   1200 +8.6263000e+09 1.79301300e-02 7.81665300e-03            nan
       50 -1    0    0    0    0 +5.9186728228e-03 +4.5105633100e-03 +6.0078591412e+00 6.0078658250e+00 4.9935713700e-03 0.0000e+00 0.0000e+00
       11 -1    0    0    0    0 -9.5702336590e-20 -7.2933825036e-20 -9.7144440135e-17 5.1100000000e-04 5.1099893000e-04 0.0000e+00 1.0000e+00
       50  1    1    2    0    0 +1.4513254991e-02 -1.0464126853e-02 +5.7020363529e+00 5.7020666111e+00 4.9935713700e-03 0.0000e+00 0.0000e+00
       11  1    1    2    0    0 -8.5945821683e-03 +1.4974690163e-02 +3.0582278827e-01 3.0631021389e-01 5.1099893000e-04 0.0000e+00 1.0000e+00
<vert_displacement>
361.26143630434655
</vert_displacement>
</event>
<event>
 4   1200 +8.6263000e+09 2.03911200e-02 7.81665300e-03            nan
       50 -1    0    0    0    0 +4.0617269929e-02 +4.0842795095e-02 +1.6191370417e+01 1.6191473645e+01 4.9935713700e-03 0.0000e+00 0.0000e+00
       11 -1    0    0    0    0 -6.5797049543e-18 -6.6162384056e-18 -2.6228852981e-15 5.1100000000e-04 5.1099893000e-04 0.0000e+00 1.0000e+00
       50  1    1    2    0    0 +5.4530302010e-02 +5.2852441011e-02 +1.5799339630e+01 1.5799522924e+01 4.9935713700e-03 0.0000e+00 0.0000e+00
       11  1    1    2    0    0 -1.3913032080e-02 -1.2009645915e-02 +3.9203078684e-01 3.9246172171e-01 5.1099893000e-04 0.0000e+00 1.0000e+00
<vert_displacement>
107.03144895998798
</vert_displacement>
</event>
<event>
 4   1200 +8.6263000e+09 1.20276700e-02 7.81665300e-03            nan
       50 -1    0    0    0    0 -3.4829935539e-02 +2.1919854350e-02 +3.8900041519e+01 3.8900063608e+01 4.9935713700e-03 0.0000e+00 0.0000e+00
       11 -1    0    0    0    0 +1.1183174847e-18 -7.0380137089e-19 -1.2490002038e-15 5.1100000000e-04 5.1099893000e-04 0.0000e+00 1.0000e+00
       50  1    1    2    0    0 -3.3607609447e-02 +1.0968736984e-02 +3.8782540241e+01 3.8782556675e+01 4.9935713700e-03 0.0000e+00 0.0000e+00
       11  1    1    2    0    0 -1.2223260918e-03 +1.0951117365e-02 +1.1750127846e-01 1.1801793343e-01 5.1099893000e-04 0.0000e+00 1.0000e+00
<vert_displacement>
285.68528188396868
</vert_displacement>
</event>
<event>
 4   1200 +8.6263000e+09 1.70851500e-02 7.81665300e-03            nan
       50 -1    0    0    0    0 +5.8035837940e-02 +1.3264881055e-02 +3.1873074981e+01 3.1873130969e+01 4.9935713700e-03 0.0000e+00 0.0000e+00
       11 -1    0    0    0    0 -4.9022280440e-18 -1.1204709748e-18 -2.6922861385e-15 5.1100000000e-04 5.1099893000e-04 0.0000e+00 1.0000e+00
       50  1    1    2    0    0 +4.1296275443e-02 +1.4761416526e-02 +3.1609702063e+01 3.1609732879e+01 4.9935713700e-03 0.0000e+00 0.0000e+00
       11  1    1    2    0    0 +1.6739562496e-02 -1.4965354705e-03 +2.6337291820e-01 2.6390908990e-01 5.1099893000e-04 0.0000e+00 1.0000e+00
<vert_displacement>
98.805637153874088
</vert_displacement>
</event>
<event>
 4   1200 +8.6263000e+09 1.19375200e-02 7.81665300e-03            nan
       50 -1    0    0    0    0 +3.9287620076e-02 -1.2776679820e-02 +1.4338636062e+01 1.4338696448e+01 4.9935713700e-03 0.0000e+00 0.0000e+00
       11 -1    0    0    0    0 -2.0913610206e-18 +6.8012901003e-19 -7.6327516127e-16 5.1100000000e-04 5.1099893000e-04 0.0000e+00 1.0000e+00
       50  1    1    2    0    0 +4.2472640757e-02 -2.2934844128e-02 +1.4222636185e+01 1.4222718971e+01 4.9935713700e-03 0.0000e+00 0.0000e+00
       11  1    1    2    0    0 -3.1850206815e-03 +1.0158164308e-02 +1.1599987689e-01 1.1648847676e-01 5.1099893000e-04 0.0000e+00 1.0000e+00
<vert_displacement>
125.44284674796737
</vert_displacement>
</event>
<event>
 4   1200 +8.6263000e+09 1.31617900e-02 7.81665300e-03            nan
       50 -1    0    0    0    0 +1.4766303235e-02 +1.5149276625e-02 +1.5458429377e+01 1.5458444659e+01 4.9935713700e-03 0.0000e+00 0.0000e+00
       11 -1    0    0    0    0 -5.0374395690e-19 -5.1680887423e-19 -5.2735544287e-16 5.1100000000e-04 5.1099893000e-04 0.0000e+00 1.0000e+00
       50  1    1    2    0    0 +7.7392645770e-03 +2.5048856033e-02 +1.5311926217e+01 1.5311949476e+01 4.9935713700e-03 0.0000e+00 0.0000e+00
       11  1    1    2    0    0 +7.0270386578e-03 -9.8995794077e-03 +1.4650316049e-01 1.4700618388e-01 5.1099893000e-04 0.0000e+00 1.0000e+00
<vert_displacement>
383.32915439344151
</vert_displacement>
</event>
<event>
 4   1200 +8.6263000e+09 9.20146300e-03 7.81665300e-03            nan
       50 -1    0    0    0    0 -1.1785163185e-02 +5.2101522920e-02 +2.7815601224e+01 2.7815652965e+01 4.9935713700e-03 0.0000e+00 0.0000e+00
       11 -1    0    0    0    0 -1.5346420652e-18 +6.7845635635e-18 +3.6220959386e-15 5.1100000000e-04 5.1099893000e-04 0.0000e+00 1.0000e+00
       50  1    1    2    0    0 -1.2710732395e-02 +5.9661739101e-02 +2.7757016678e+01 2.7757084157e+01 4.9935713700e-03 0.0000e+00 0.0000e+00
       11  1    1    2    0    0 +9.2556921043e-04 -7.5602161817e-03 +5.8584546159e-02 5.9079808019e-02 5.1099893000e-04 0.0000e+00 1.0000e+00
<vert_displacement>
296.67923918220418
</vert_displacement>
</event>
<event>
 4   1200 +8.6263000e+09 2.16567300e-02 7.81665300e-03            nan
       50 -1    0    0    0    0 +1.6965153982e-01 -7.9851121281e-02 +5.1633318928e+01 5.1633659625e+01 4.9935713700e-03 0.0000e+00 0.0000e+00
       11 -1    0    0    0    0 -6.4293083612e-18 +3.0261292191e-18 -1.9567551786e-15 5.1100000000e-04 5.1099893000e-04 0.0000e+00 1.0000e+00
       50  1    1    2    0    0 +1.7040697741e-01 -1.0013184222e-01 +5.1195037531e+01 5.1195419303e+01 4.9935713700e-03 0.0000e+00 0.0000e+00
       11  1    1    2    0    0 -7.5543758635e-04 +2.0280720942e-02 +4.3828139705e-01 4.3875132187e-01 5.1099893000e-04 0.0000e+00 1.0000e+00
<vert_displacement>
326.52861605709694
</vert_displacement>
</event>
<event>
 4   1200 +8.6263000e+09 2.77893400e-02 7.81665300e-03            nan
       50 -1    0    0    0    0 -3.1443905738e-02 +1.7789259000e-02 +1.0734958003e+01 1.0735019955e+01 4.9935713700e-03 0.0000e+00 0.0000e+00
       11 -1    0    0    0    0 -5.6909131145e-19 +3.2196104448e-19 +1.9428792908e-16 5.1100000000e-04 5.1099893000e-04 0.0000e+00 1.0000e+00
       50  1    1    2    0    0 -1.7999404417e-03 +1.7018631360e-02 +9.9455960912e+00 9.9456120685e+00 4.9935713700e-03 0.0000e+00 0.0000e+00
       11  1    1    2    0    0 -2.9643965296e-02 +7.7062763986e-04 +7.8936191148e-01 7.8991888632e-01 5.1099893000e-04 0.0000e+00 1.0000e+00
<vert_displacement>
367.19139729123594
</vert_displacement>
</event>
<event>
 4   1200 +8.6263000e+09 1.08077800e-02 7.81665300e-03            nan
       50 -1    0    0    0    0 -3.4885877658e-02 -1.9229134881e-02 +1.4101608040e+01 1.4101665186e+01 4.9935713700e-03 0.0000e+00 0.0000e+00
       11 -1    0    0    0    0 -7.7247074803e-19 -4.2578674245e-19 +3.1224897987e-16 5.1100000000e-04 5.1099893000e-04 0.0000e+00 1.0000e+00
       50  1    1    2    0    0 -3.3021785001e-02 -2.8549370737e-02 +1.4011120099e+01 1.4011188988e+01 4.9935713700e-03 0.0000e+00 0.0000e+00
       11  1    1    2    0    0 -1.8640926573e-03 +9.3202358557e-03 +9.0487941035e-02 9.0987198168e-02 5.1099893000e-04 0.0000e+00 1.0000e+00
<vert_displacement>
145.55741806108594
</vert_displacement>
</event>
<event>
 4   1200 +8.6263000e+09 2.00341000e-02 7.81665300e-03            nan
       50 -1    0    0    0    0 -6.1851408691e-03 +7.8475542438e-02 +3.4444229818e+01 3.4444320132e+01 4.9935713700e-03 0.0000e+00 0.0000e+00
       11 -1    0    0    0    0 +7.7252744912e-20 -9.8016378124e-19 -4.3021029854e-16 5.1100000000e-04 5.1099893000e-04 0.0000e+00 1.0000e+00
       50  1    1    2    0    0 +1.1699501764e-02 +8.5305452604e-02 +3.4071856755e+01 3.4071965919e+01 4.9935713700e-03 0.0000e+00 0.0000e+00
       11  1    1    2    0    0 -1.7884642634e-02 -6.8299101660e-03 +3.7237306282e-01 3.7286521312e-01 5.1099893000e-04 0.0000e+00 1.0000e+00
<vert_displacement>
162.84877866889485
</vert_displacement>
</event>
<event>
 4   1200 +8.6263000e+09 1.08406700e-02 7.81665300e-03            nan
       50 -1    0    0    0    0 +1.2502974987e-03 -1.0973251730e-02 +4.2824281004e+00 4.2824452531e+00 4.9935713700e-03 0.0000e+00 0.0000e+00
       11 -1    0    0    0    0 -1.5194042908e-19 +1.3335070877e-18 -5.2041531213e-16 5.1100000000e-04 5.1099893000e-04 0.0000e+00 1.0000e+00
       50  1    1    2    0    0 -5.6379018766e-03 -3.9899277453e-03 +4.1898310647e+00 4.1898397335e+00 4.9935713700e-03 0.0000e+00 0.0000e+00
       11  1    1    2    0    0 +6.8881993753e-03 -6.9833239849e-03 +9.2597035649e-02 9.3116519670e-02 5.1099893000e-04 0.0000e+00 1.0000e+00
<vert_displacement>
445.25437605998241
</vert_displacement>
</event>
<event>
 4   1200 +8.6263000e+09 2.12217900e-02 7.81665300e-03            nan
       50 -1    0    0    0    0 +1.9659239116e-02 +2.8501568586e-03 +1.9136776184e+01 1.9136787146e+01 4.9935713700e-03 0.0000e+00 0.0000e+00
       11 -1    0    0    0    0 -1.3116131545e-18 -1.9015503123e-19 -1.2767557904e-15 5.1100000000e-04 5.1099893000e-04 0.0000e+00 1.0000e+00
       50  1    1    2    0    0 +3.3340965149e-02 +1.7822659656e-02 +1.8710993395e+01 1.8711032254e+01 4.9935713700e-03 0.0000e+00 0.0000e+00
       11  1    1    2    0    0 -1.3681726033e-02 -1.4972502797e-02 +4.2578278938e-01 4.2626589157e-01 5.1099893000e-04 0.0000e+00 1.0000e+00
<vert_displacement>
347.74998684540782
</vert_displacement>
</event>
<event>
 4   1200 +8.6263000e+09 2.70612400e-02 7.81665300e-03            nan
       50 -1    0    0    0    0 -2.2056167792e-02 -6.9907571287e-02 +3.0010838128e+01 3.0010928070e+01 4.9935713700e-03 0.0000e+00 0.0000e+00
       11 -1    0    0    0    0 -7.1395184446e-19 -2.2628880925e-18 +9.7144224860e-16 5.1100000000e-04 5.1099893000e-04 0.0000e+00 1.0000e+00
       50  1    1    2    0    0 +3.4116996874e-03 -5.9035165325e-02 +2.9301961012e+01 2.9302021105e+01 4.9935713700e-03 0.0000e+00 0.0000e+00
       11  1    1    2    0    0 -2.5467867480e-02 -1.0872405962e-02 +7.0887711662e-01 7.0941796500e-01 5.1099893000e-04 0.0000e+00 1.0000e+00
<vert_displacement>
274.32258304818231
</vert_displacement>
</event>
<event>
 4   1200 +8.6263000e+09 9.62405100e-03 7.81665300e-03            nan
       50 -1    0    0    0    0 -1.4024889739e-01 +2.1156671233e-03 +4.6402734997e+01 4.6402947259e+01 4.9935713700e-03 0.0000e+00 0.0000e+00
       11 -1    0    0    0    0 +2.4327760357e-18 -3.6698643431e-20 -8.0490801558e-16 5.1100000000e-04 5.1099893000e-04 0.0000e+00 1.0000e+00
       50  1    1    2    0    0 -1.3448816448e-01 -3.9511584602e-03 +4.6336427258e+01 4.6336622867e+01 4.9935713700e-03 0.0000e+00 0.0000e+00
       11  1    1    2    0    0 -5.7607329129e-03 +6.0668255836e-03 +6.6307738227e-02 6.6835392459e-02 5.1099893000e-04 0.0000e+00 1.0000e+00
<vert_displacement>
35.026348959147548
</vert_displacement>
</event>
<event>
 4   1200 +8.6263000e+09 7.97136600e-03 7.81665300e-03            nan
       50 -1    0    0    0    0 -1.2980379983e-02 -2.4985081510e-03 +7.2915000593e+00 7.2915137512e+00 4.9935713700e-03 0.0000e+00 0.0000e+00
       11 -1    0    0    0    0 -2.8411089738e-19 -5.4686641980e-20 +1.5959429753e-16 5.1100000000e-04 5.1099893000e-04 0.0000e+00 1.0000e+00
       50  1    1    2    0    0 -1.8730057902e-02 -3.0237126018e-04 +7.2535135518e+00 7.2535394593e+00 4.9935713700e-03 0.0000e+00 0.0000e+00
       11  1    1    2    0    0 +5.7496779188e-03 -2.1961368909e-03 +3.7986507548e-02 3.8485291853e-02 5.1099893000e-04 0.0000e+00 1.0000e+00
<vert_displacement>
220.96078644914655
</vert_displacement>
</event>
<event>
 4   1200 +8.6263000e+09 1.40723200e-02 7.81665300e-03            nan
       50 -1    0    0    0    0 +2.8814207403e-02 -2.4022369611e-02 +1.0130429666e+01 1.0130500357e+01 4.9935713700e-03 0.0000e+00 0.0000e+00
       11 -1    0    0    0    0 -1.3815420930e-19 +1.1517899600e-19 -4.8571924288e-17 5.1100000000e-04 5.1099893000e-04 0.0000e+00 1.0000e+00
       50  1    1    2    0    0 +1.6471167869e-02 -2.9323590206e-02 +9.9581362197e+00 9.9581942680e+00 4.9935713700e-03 0.0000e+00 0.0000e+00
       11  1    1    2    0    0 +1.2343039534e-02 +5.3012205944e-03 +1.7229344647e-01 1.7281708938e-01 5.1099893000e-04 0.0000e+00 1.0000e+00
<vert_displacement>
395.04229684624931
</vert_displacement>
</event>
<event>
 4   1200 +8.6263000e+09 9.11062400e-03 7.81665300e-03            nan
       50 -1    0    0    0    0 -4.3752216184e-04 +5.4328269543e-03 +1.1345262291e+01 1.1345264699e+01 4.9935713700e-03 0.0000e+00 0.0000e+00
       11 -1    0    0    0    0 -6.4222462557e-20 +7.9746709101e-19 +1.6653343448e-15 5.1100000000e-04 5.1099893000e-04 0.0000e+00 1.0000e+00
       50  1    1    2    0    0 -7.9559949567e-03 +4.1778130732e-03 +1.1288154225e+01 1.1288158907e+01 4.9935713700e-03 0.0000e+00 0.0000e+00
       11  1    1    2    0    0 +7.5184727949e-03 +1.2550138811e-03 +5.7108066142e-02 5.7616792964e-02 5.1099893000e-04 0.0000e+00 1.0000e+00
<vert_displacement>
428.83699120619866
</vert_displacement>
</event>
<event>
 4   1200 +8.6263000e+09 1.08780000e-02 7.81665300e-03            nan
       50 -1    0    0    0    0 -6.8411700821e-03 -2.1269290630e-02 +1.2908466278e+01 1.2908486579e+01 4.9935713700e-03 0.0000e+00 0.0000e+00
       11 -1    0    0    0    0 -3.4567915643e-19 -1.0747211887e-18 +6.5225504996e-16 5.1100000000e-04 5.1099893000e-04 0.0000e+00 1.0000e+00
       50  1    1    2    0    0 +2.7525439760e-03 -2.2630725635e-02 +1.2816423044e+01 1.2816444293e+01 4.9935713700e-03 0.0000e+00 0.0000e+00
       11  1    1    2    0    0 -9.5937140580e-03 +1.3614350041e-03 +9.2043233773e-02 9.2553286587e-02 5.1099893000e-04 0.0000e+00 1.0000e+00
<vert_displacement>
404.17040330120881
</vert_displacement>
</event>
<event>
 4   1200 +8.6263000e+09 2.63689700e-02 7.81665300e-03            nan
       50 -1    0    0    0    0 -6.9325352772e-03 +1.0994888037e-03 +3.9736120123e+00 3.9736213495e+00 4.9935713700e-03 0.0000e+00 0.0000e+00
       11 -1    0    0    0    0 -7.8688189795e-19 +1.2479818739e-19 +4.5102740007e-16 5.1100000000e-04 5.1099893000e-04 0.0000e+00 1.0000e+00
       50  1    1    2    0    0 -3.1367248131e-02 +1.4984089538e-03 +3.1427697922e+00 3.1429306471e+00 4.9935713700e-03 0.0000e+00 0.0000e+00
       11  1    1    2    0    0 +2.4434712854e-02 -3.9892015017e-04 +8.3084222010e-01 8.3120170245e-01 5.1099893000e-04 0.0000e+00 1.0000e+00
<vert_displacement>
447.66749249776069
</vert_displacement>
</event>
<event>
 4   1200 +8.6263000e+09 9.12045600e-03 7.81665300e-03            nan
       50 -1    0    0    0    0 -4.8857857327e-03 +8.1508082820e-03 +4.6701860832e+00 4.6701984212e+00 4.9935713700e-03 0.0000e+00 0.0000e+00
       11 -1    0    0    0    0 +2.1777641007e-19 -3.6330978556e-19 -2.0816638616e-16 5.1100000000e-04 5.1099893000e-04 0.0000e+00 1.0000e+00
       50  1    1    2    0    0 +6.1284430366e-04 +1.3404737173e-02 +4.6124662013e+00 4.6124884234e+00 4.9935713700e-03 0.0000e+00 0.0000e+00
       11  1    1    2    0    0 -5.4986300364e-03 -5.2539288911e-03 +5.7719881911e-02 5.8220997834e-02 5.1099893000e-04 0.0000e+00 1.0000e+00
<vert_displacement>
30.379958014514948
</vert_displacement>
</event>
<event>
 4   1200 +8.6263000e+09 1.66440600e-02 7.81665300e-03            nan
       50 -1    0    0    0    0 +1.3358998660e-02 -7.2921946842e-03 +6.4609487971e+00 6.4609686529e+00 4.9935713700e-03 0.0000e+00 0.0000e+00
       11 -1    0    0    0    0 -4.4476268467e-19 +2.4277987949e-19 -2.1510511421e-16 5.1100000000e-04 5.1099893000e-04 0.0000e+00 1.0000e+00
       50  1    1    2    0    0 +1.9876521967e-02 -2.1229035911e-02 +6.2039807475e+00 6.2040509185e+00 4.9935713700e-03 0.0000e+00 0.0000e+00
       11  1    1    2    0    0 -6.5175233063e-03 +1.3936841227e-02 +2.5696804956e-01 2.5742873435e-01 5.1099893000e-04 0.0000e+00 1.0000e+00
<vert_displacement>
495.36815635671309
</vert_displacement>
</event>
<event>
 4   1200 +8.6263000e+09 1.48840300e-02 7.81665300e-03            nan
       50 -1    0    0    0    0 +3.4555351411e-02 +2.4495357921e-02 +1.4010742526e+01 1.4010807442e+01 4.9935713700e-03 0.0000e+00 0.0000e+00
       11 -1    0    0    0    0 +3.4227282544e-19 +2.4262798737e-19 +1.3877724390e-16 5.1100000000e-04 5.1099893000e-04 0.0000e+00 1.0000e+00
       50  1    1    2    0    0 +2.9772394368e-02 +3.7499419247e-02 +1.3815635885e+01 1.3815719758e+01 4.9935713700e-03 0.0000e+00 0.0000e+00
       11  1    1    2    0    0 +4.7829570428e-03 -1.3004061326e-02 +1.9510664112e-01 1.9559868307e-01 5.1099893000e-04 0.0000e+00 1.0000e+00
<vert_displacement>
180.89019467581403
</vert_displacement>
</event>
<event>
 4   1200 +8.6263000e+09 1.12969300e-02 7.81665300e-03            nan
       50 -1    0    0    0    0 +3.2010490321e-02 +9.2720539832e-03 +1.9502279177e+01 1.9502308291e+01 4.9935713700e-03 0.0000e+00 0.0000e+00
       11 -1    0    0    0    0 +2.8473219697e-18 +8.2474597379e-19 +1.7347209432e-15 5.1100000000e-04 5.1099893000e-04 0.0000e+00 1.0000e+00
       50  1    1    2    0    0 +2.4289891956e-02 +2.4705687979e-03 +1.9401294181e+01 1.9401310186e+01 4.9935713700e-03 0.0000e+00 0.0000e+00
       11  1    1    2    0    0 +7.7205983648e-03 +6.8014851853e-03 +1.0098499567e-01 1.0150910457e-01 5.1099893000e-04 0.0000e+00 1.0000e+00
<vert_displacement>
8.4286436567770924
</vert_displacement>
</event>
<event>
 4   1200 +8.6263000e+09 1.44738600e-02 7.81665300e-03            nan
       50 -1    0    0    0    0 -2.6540065304e-02 -1.9204493327e-03 +3.1029954783e+01 3.1029966594e+01 4.9935713700e-03 0.0000e+00 0.0000e+00
       11 -1    0    0    0    0 +2.8487357730e-18 +2.0613561616e-19 -3.3306678492e-15 5.1100000000e-04 5.1099893000e-04 0.0000e+00 1.0000e+00
       50  1    1    2    0    0 -2.0824231142e-02 +1.0485872366e-02 +3.0848309206e+01 3.0848318421e+01 4.9935713700e-03 0.0000e+00 0.0000e+00
       11  1    1    2    0    0 -5.7158341619e-03 -1.2406321698e-02 +1.8164557706e-01 1.8215917316e-01 5.1099893000e-04 0.0000e+00 1.0000e+00
<vert_displacement>
415.84149391861860
</vert_displacement>
</event>
<event>
 4   1200 +8.6263000e+09 2.24702100e-02 7.81665300e-03            nan
       50 -1    0    0    0    0 +1.1370467012e-03 +2.5342015212e-02 +1.0297274532e+01 1.0297306990e+01 4.9935713700e-03 0.0000e+00 0.0000e+00
       11 -1    0    0    0    0 +5.6699164604e-20 +1.2636869624e-18 +5.1347659077e-16 5.1100000000e-04 5.1099893000e-04 0.0000e+00 1.0000e+00
       50  1    1    2    0    0 +1.9785902956e-02 +1.2719100584e-02 +9.8039430935e+00 9.8039725812e+00 4.9935713700e-03 0.0000e+00 0.0000e+00
       11  1    1    2    0    0 -1.8648856255e-02 +1.2622914628e-02 +4.9333143891e-01 4.9384540855e-01 5.1099893000e-04 0.0000e+00 1.0000e+00
<vert_displacement>
366.24989781431276
</vert_displacement>
</event>
<event>
 4   1200 +8.6263000e+09 9.92750000e-03 7.81665300e-03            nan
       50 -1    0    0    0    0 +1.5030103990e-02 +2.2214204927e-02 +1.0112794355e+01 1.0112831156e+01 4.9935713700e-03 0.0000e+00 0.0000e+00
       11 -1    0    0    0    0 +1.5469304500e-18 +2.2863334842e-18 +1.0408304249e-15 5.1100000000e-04 5.1099893000e-04 0.0000e+00 1.0000e+00
       50  1    1    2    0    0 +8.0454727194e-03 +1.6923655167e-02 +1.0040255843e+01 1.0040274572e+01 4.9935713700e-03 0.0000e+00 0.0000e+00
       11  1    1    2    0    0 +6.9846312708e-03 +5.2905497597e-03 +7.2538512110e-02 7.3067584124e-02 5.1099893000e-04 0.0000e+00 1.0000e+00
<vert_displacement>
427.42229823675314
</vert_displacement>
</event>
<event>
 4   1200 +8.6263000e+09 6.52606900e-03 7.81665300e-03            nan
       50 -1    0    0    0    0 -1.0078192776e-02 -3.9115452709e-03 +6.2776278985e+00 6.2776391931e+00 4.9935713700e-03 0.0000e+00 0.0000e+00
       11 -1    0    0    0    0 +6.5724714224e-19 +2.5509057113e-19 -4.0939413328e-16 5.1100000000e-04 5.1099893000e-04 0.0000e+00 -1.0000e+00
       50  1    1    2    0    0 -7.8426451243e-03 -3.2588284487e-04 +6.2603105020e+00 6.2603174145e+00 4.9935713700e-03 0.0000e+00 0.0000e+00
       11  1    1    2    0    0 -2.2355476512e-03 -3.5856624260e-03 +1.7317396538e-02 1.7832778558e-02 5.1099893000e-04 0.0000e+00 -1.0000e+00
<vert_displacement>
284.25017424506848
</vert_displacement>
</event>
<event>
 4   1200 +8.6263000e+09 1.65484700e-02 7.81665300e-03            nan
       50 -1    0    0    0    0 +1.9051138260e-02 +7.9101897668e-03 +1.0080389607e+01 1.0080411950e+01 4.9935713700e-03 0.0000e+00 0.0000e+00
       11 -1    0    0    0    0 -1.4294186584e-18 -5.9350641885e-19 -7.5633785192e-16 5.1100000000e-04 5.1099893000e-04 0.0000e+00 1.0000e+00
       50  1    1    2    0    0 +4.6660005442e-03 +1.5153402120e-02 +9.8306364752e+00 9.8306505299e+00 4.9935713700e-03 0.0000e+00 0.0000e+00
       11  1    1    2    0    0 +1.4385137716e-02 -7.2432123531e-03 +2.4975313203e-01 2.5027242035e-01 5.1099893000e-04 0.0000e+00 1.0000e+00
<vert_displacement>
286.18848640728550
</vert_displacement>
</event>
<event>
 4   1200 +8.6263000e+09 2.19909200e-02 7.81665300e-03            nan
       50 -1    0    0    0    0 +7.6994321647e-03 -1.6567972893e-03 +3.4967064402e+00 3.4967188750e+00 4.9935713700e-03 0.0000e+00 0.0000e+00
       11 -1    0    0    0    0 -3.8196949268e-20 +8.2193856185e-21 -1.7347190759e-17 5.1100000000e-04 5.1099893000e-04 0.0000e+00 1.0000e+00
       50  1    1    2    0    0 +2.4881599931e-02 +9.6395547086e-03 +2.9670402733e+00 2.9671644602e+00 4.9935713700e-03 0.0000e+00 0.0000e+00
       11  1    1    2    0    0 -1.7182167766e-02 -1.1296351998e-02 +5.2966616695e-01 5.3006541483e-01 5.1099893000e-04 0.0000e+00 1.0000e+00
<vert_displacement>
269.22091582754695
</vert_displacement>
</event>
<event>
 4   1200 +8.6263000e+09 5.35760900e-02 7.81665300e-03            nan
       50 -1    0    0    0    0 -3.2678523828e-02 -3.2881985522e-03 +1.2254887607e+01 1.2254932636e+01 4.9935713700e-03 0.0000e+00 0.0000e+00
       11 -1    0    0    0    0 -3.8856267449e-19 -3.9098192759e-20 +1.4571624867e-16 5.1100000000e-04 5.1099893000e-04 0.0000e+00 1.0000e+00
       50  1    1    2    0    0 +1.1536971869e-02 +3.9940950915e-02 +7.9681662573e+00 7.9682762766e+00 4.9935713700e-03 0.0000e+00 0.0000e+00
       11  1    1    2    0    0 -4.4215495697e-02 -4.3229149467e-02 +4.2867213501e+00 4.2871673589e+00 5.1099893000e-04 0.0000e+00 1.0000e+00
<vert_displacement>
159.99344824951072
</vert_displacement>
</event>
<event>
 4   1200 +8.6263000e+09 1.70363100e-02 7.81665300e-03            nan
       50 -1    0    0    0    0 -4.0952286537e-02 -2.7430649526e-02 +1.5732616583e+01 1.5732694588e+01 4.9935713700e-03 0.0000e+00 0.0000e+00
       11 -1    0    0    0    0 -4.3348747534e-19 -2.9035846385e-19 +1.6653263638e-16 5.1100000000e-04 5.1099893000e-04 0.0000e+00 1.0000e+00
       50  1    1    2    0    0 -4.0390659461e-02 -4.3257819813e-02 +1.5468553474e+01 1.5468667498e+01 4.9935713700e-03 0.0000e+00 0.0000e+00
       11  1    1    2    0    0 -5.6162707641e-04 +1.5827170287e-02 +2.6406310837e-01 2.6453809001e-01 5.1099893000e-04 0.0000e+00 1.0000e+00
<vert_displacement>
58.573242895550059
</vert_displacement>
</event>
<event>
 4   1200 +8.6263000e+09 1.40896000e-02 7.81665300e-03            nan
       50 -1    0    0    0    0 +2.9125477028e-04 +6.7690756120e-03 +8.1946552251e+00 8.1946595475e+00 4.9935713700e-03 0.0000e+00 0.0000e+00
       11 -1    0    0    0    0 +2.8114949710e-20 +6.5342181429e-19 +7.9103363467e-16 5.1100000000e-04 5.1099893000e-04 0.0000e+00 1.0000e+00
       50  1    1    2    0    0 +2.3178795425e-03 -6.3915211838e-03 +8.0211249082e+00 8.0211293440e+00 4.9935713700e-03 0.0000e+00 0.0000e+00
       11  1    1    2    0    0 -2.0266247723e-03 +1.3160596796e-02 +1.7353031686e-01 1.7404120347e-01 5.1099893000e-04 0.0000e+00 1.0000e+00
<vert_displacement>
166.43954541898171
</vert_displacement>
</event>
<event>
 4   1200 +8.6263000e+09 3.70316000e-02 7.81665300e-03            nan
       50 -1    0    0    0    0 +2.3929764988e-02 -1.0122883324e-02 +6.9008474644e+00 6.9008981856e+00 4.9935713700e-03 0.0000e+00 0.0000e+00
       11 -1    0    0    0    0 +1.0105841088e-18 -4.2750210989e-19 +2.9143147824e-16 5.1100000000e-04 5.1099893000e-04 0.0000e+00 1.0000e+00
       50  1    1    2    0    0 -1.7755247402e-02 -3.0398461915e-02 +1.8004703231e+00 1.8008213780e+00 4.9935713700e-03 0.0000e+00 0.0000e+00
       11  1    1    2    0    0 +4.1685012390e-02 +2.0275578591e-02 +5.1003771413e+00 5.1005878076e+00 5.1099893000e-04 0.0000e+00 1.0000e+00
<vert_displacement>
118.59441538905803
</vert_displacement>
</event>
<event>
 4   1200 +8.6263000e+09 2.27257100e-02 7.81665300e-03            nan
       50 -1    0    0    0    0 +2.3925416713e-02 +2.9552991127e-02 +2.8268111053e+01 2.8268137067e+01 4.9935713700e-03 0.0000e+00 0.0000e+00
       11 -1    0    0    0    0 -1.7501240797e-18 -2.1617764079e-18 -2.0677885127e-15 5.1100000000e-04 5.1099893000e-04 0.0000e+00 1.0000e+00
       50  1    1    2    0    0 +4.5664842828e-02 +2.8183006347e-02 +2.7778662443e+01 2.7778714723e+01 4.9935713700e-03 0.0000e+00 0.0000e+00
       11  1    1    2    0    0 -2.1739426115e-02 +1.3699847803e-03 +4.8944860907e-01 4.8993334398e-01 5.1099893000e-04 0.0000e+00 1.0000e+00
<vert_displacement>
360.68165149157755
</vert_displacement>
</event>
<event>
 4   1200 +8.6263000e+09 9.31779600e-03 7.81665300e-03            nan
       50 -1    0    0    0    0 -1.1981951700e-02 -8.6272567406e-03 +6.6642133922e+00 6.6642316188e+00 4.9935713700e-03 0.0000e+00 0.0000e+00
       11 -1    0    0    0    0 +3.7427352337e-19 +2.6948479330e-19 -2.0816630622e-16 5.1100000000e-04 5.1099893000e-04 0.0000e+00 1.0000e+00
       50  1    1    2    0    0 -6.2655223461e-03 -3.0297988180e-03 +6.6031101226e+00 6.6031156784e+00 4.9935713700e-03 0.0000e+00 0.0000e+00
       11  1    1    2    0    0 -5.7164293544e-03 -5.5974579227e-03 +6.1103269612e-02 6.1626940351e-02 5.1099893000e-04 0.0000e+00 1.0000e+00
<vert_displacement>
111.62274903890103
</vert_displacement>
</event>
<event>
 4   1200 +8.6263000e+09 2.05720400e-02 7.81665300e-03            nan
       50 -1    0    0    0    0 +2.4941836542e-02 -2.2988742240e-03 +9.4022592664e+00 9.4022939556e+00 4.9935713700e-03 0.0000e+00 0.0000e+00
       11 -1    0    0    0    0 +1.1412389924e-18 -1.0518731845e-19 +4.3020989548e-16 5.1100000000e-04 5.1099893000e-04 0.0000e+00 1.0000e+00
       50  1    1    2    0    0 +1.3456331996e-02 -1.9229057965e-02 +8.9948637455e+00 8.9948957507e+00 4.9935713700e-03 0.0000e+00 0.0000e+00
       11  1    1    2    0    0 +1.1485504546e-02 +1.6930183741e-02 +4.0739552088e-01 4.0790920496e-01 5.1099893000e-04 0.0000e+00 1.0000e+00
<vert_displacement>
297.32696417605234
</vert_displacement>
</event>
<event>
 4   1200 +8.6263000e+09 1.50179500e-02 7.81665300e-03            nan
       50 -1    0    0    0    0 -7.3512930495e-02 +2.6481080009e-02 +3.4102085587e+01 3.4102175469e+01 4.9935713700e-03 0.0000e+00 0.0000e+00
       11 -1    0    0    0    0 +3.3206635666e-18 -1.1961808215e-18 -1.5404304031e-15 5.1100000000e-04 5.1099893000e-04 0.0000e+00 1.0000e+00
       50  1    1    2    0    0 -6.5317864171e-02 +3.8169994900e-02 +3.3904662155e+01 3.3904746926e+01 4.9935713700e-03 0.0000e+00 0.0000e+00
       11  1    1    2    0    0 -8.1950663239e-03 -1.1688914891e-02 +1.9742343269e-01 1.9793954314e-01 5.1099893000e-04 0.0000e+00 1.0000e+00
<vert_displacement>
59.398147663615624
</vert_displacement>
</event>
<event>
 4   1200 +8.6263000e+09 1.86380200e-02 7.81665300e-03            nan
       50 -1    0    0    0    0 -7.1251734618e-03 -4.0791221093e-03 +2.5673170045e+00 2.5673349888e+00 4.9935713700e-03 0.0000e+00 0.0000e+00
       11 -1    0    0    0    0 -7.1253416796e-19 -4.0792184131e-19 +2.5673776162e-16 5.1100000000e-04 5.1099893000e-04 0.0000e+00 -1.0000e+00
       50  1    1    2    0    0 -1.2865393943e-02 -2.0126219968e-02 +2.1981370253e+00 2.1982724810e+00 4.9935713700e-03 0.0000e+00 0.0000e+00
       11  1    1    2    0    0 +5.7402204813e-03 +1.6047097858e-02 +3.6917997927e-01 3.6957350784e-01 5.1099893000e-04 0.0000e+00 -1.0000e+00
<vert_displacement>
337.39578396408911
</vert_displacement>
</event>
<event>
 4   1200 +8.6263000e+09 7.94910400e-03 7.81665300e-03            nan
       50 -1    0    0    0    0 -3.2259772761e-03 -1.0205205322e-02 +4.6900970987e+00 4.6901119693e+00 4.9935713700e-03 0.0000e+00 0.0000e+00
       11 -1    0    0    0    0 -2.0045545380e-19 -6.3413002914e-19 +2.9143278512e-16 5.1100000000e-04 5.1099893000e-04 0.0000e+00 1.0000e+00
       50  1    1    2    0    0 -2.0779224224e-03 -1.6205297635e-02 +4.6523463528e+00 4.6523777202e+00 4.9935713700e-03 0.0000e+00 0.0000e+00
       11  1    1    2    0    0 -1.1480548537e-03 +6.0000923122e-03 +3.7750745886e-02 3.8245249019e-02 5.1099893000e-04 0.0000e+00 1.0000e+00
<vert_displacement>
469.18356396239182
</vert_displacement>
</event>
<event>
 4   1200 +8.6263000e+09 5.00467700e-02 7.81665300e-03            nan
       50 -1    0    0    0    0 -6.3165786197e-02 -6.6254499547e-02 +2.8864403395e+01 2.8864548980e+01 4.9935713700e-03 0.0000e+00 0.0000e+00
       11 -1    0    0    0    0 +6.0738963305e-20 +6.3709008612e-20 -2.7755436039e-17 5.1100000000e-04 5.1099893000e-04 0.0000e+00 1.0000e+00
       50  1    1    2    0    0 -6.9175285281e-02 -1.0847915361e-01 +2.6189872699e+01 2.6190189191e+01 4.9935713700e-03 0.0000e+00 0.0000e+00
       11  1    1    2    0    0 +6.0094990838e-03 +4.2224654068e-02 +2.6745306958e+00 2.6748707893e+00 5.1099893000e-04 0.0000e+00 1.0000e+00
<vert_displacement>
215.03051471309595
</vert_displacement>
</event>
<event>
 4   1200 +8.6263000e+09 1.54258200e-02 7.81665300e-03            nan
       50 -1    0    0    0    0 +2.0195737844e-03 -2.7251248216e-03 +1.2963809841e+00 1.2963950388e+00 4.9935713700e-03 0.0000e+00 0.0000e+00
       11 -1    0    0    0    0 -2.7024386401e-20 +3.6465528884e-20 -1.7347175383e-17 5.1100000000e-04 5.1099893000e-04 0.0000e+00 1.0000e+00
       50  1    1    2    0    0 -3.2098729637e-03 +1.1603516154e-02 +1.0336453333e+00 1.0337275055e+00 4.9935713700e-03 0.0000e+00 0.0000e+00
       11  1    1    2    0    0 +5.2294467481e-03 -1.4328640975e-02 +2.6273565083e-01 2.6317853332e-01 5.1099893000e-04 0.0000e+00 1.0000e+00
<vert_displacement>
50.597382670877920
</vert_displacement>
</event>
<event>
 4   1200 +8.6263000e+09 8.53852000e-03 7.81665300e-03            nan
       50 -1    0    0    0    0 +2.8372734219e-02 -7.8230563752e-03 +1.0330620115e+01 1.0330663246e+01 4.9935713700e-03 0.0000e+00 0.0000e+00
       11 -1    0    0    0    0 +7.6229535635e-19 -2.1018346350e-19 +2.7755462977e-16 5.1100000000e-04 5.1099893000e-04 0.0000e+00 1.0000e+00
       50  1    1    2    0    0 +2.4054916426e-02 -2.2711511868e-03 +1.0283479976e+01 1.0283509573e+01 4.9935713700e-03 0.0000e+00 0.0000e+00
       11  1    1    2    0    0 +4.3178177935e-03 -5.5519051884e-03 +4.7140138977e-02 4.7664672709e-02 5.1099893000e-04 0.0000e+00 1.0000e+00
<vert_displacement>
146.86621722911522
</vert_displacement>
</event>
<event>
 4   1200 +8.6263000e+09 2.43847300e-02 7.81665300e-03            nan
       50 -1    0    0    0    0 -1.8241815940e-02 -4.3127512841e-02 +1.9329022209e+01 1.9329079576e+01 4.9935713700e-03 0.0000e+00 0.0000e+00
       11 -1    0    0    0    0 -1.3882990227e-18 -3.2822326530e-18 +1.4710411908e-15 5.1100000000e-04 5.1099893000e-04 0.0000e+00 1.0000e+00
       50  1    1    2    0    0 -2.0668506865e-02 -1.8163071409e-02 +1.8754544475e+01 1.8754565324e+01 4.9935713700e-03 0.0000e+00 0.0000e+00
       11  1    1    2    0    0 +2.4266909246e-03 -2.4964441432e-02 +5.7447773427e-01 5.7502525202e-01 5.1099893000e-04 0.0000e+00 1.0000e+00
<vert_displacement>
205.97256068311933
</vert_displacement>
</event>
<event>
 4   1200 +8.6263000e+09 1.67034600e-02 7.81665300e-03            nan
       50 -1    0    0    0    0 -7.0122902121e-04 -7.2218520672e-03 +9.7377320750e+00 9.7377360586e+00 4.9935713700e-03 0.0000e+00 0.0000e+00
       11 -1    0    0    0    0 +8.6944364074e-20 +8.9542690965e-19 -1.2073672041e-15 5.1100000000e-04 5.1099893000e-04 0.0000e+00 1.0000e+00
       50  1    1    2    0    0 -1.2289704690e-02 +3.8922653143e-03 +9.4824146294e+00 9.4824247071e+00 4.9935713700e-03 0.0000e+00 0.0000e+00
       11  1    1    2    0    0 +1.1588475669e-02 -1.1114117382e-02 +2.5531744562e-01 2.5582235151e-01 5.1099893000e-04 0.0000e+00 1.0000e+00
<vert_displacement>
478.84423912674345
</vert_displacement>
</event>
<event>
 4   1200 +8.6263000e+09 2.78162900e-02 7.81665300e-03            nan
       50 -1    0    0    0    0 +1.0189857557e-03 -3.2980553582e-03 +6.3293247034e+00 6.3293276145e+00 4.9935713700e-03 0.0000e+00 0.0000e+00
       11 -1    0    0    0    0 -1.1618077222e-19 +3.7603137846e-19 -7.2164485868e-16 5.1100000000e-04 5.1099893000e-04 0.0000e+00 1.0000e+00
       50  1    1    2    0    0 +4.7262350295e-03 -2.9950164510e-02 +5.4829533165e+00 5.4830394269e+00 4.9935713700e-03 0.0000e+00 0.0000e+00
       11  1    1    2    0    0 -3.7072492738e-03 +2.6652109152e-02 +8.4637138687e-01 8.4679918768e-01 5.1099893000e-04 0.0000e+00 1.0000e+00
<vert_displacement>
210.56714805277426
</vert_displacement>
</event>
<event>
 4   1200 +8.6263000e+09 6.00204600e-03 7.81665300e-03            nan
       50 -1    0    0    0    0 -2.0738630594e-02 +6.8375120189e-04 +7.9331376855e+00 7.9331663938e+00 4.9935713700e-03 0.0000e+00 0.0000e+00
       11 -1    0    0    0    0 +3.6278877505e-20 -1.1961120569e-21 -1.3877740337e-17 5.1100000000e-04 5.1099893000e-04 0.0000e+00 1.0000e+00
       50  1    1    2    0    0 -2.1486730690e-02 +3.9209996530e-03 +7.9222696812e+00 7.9223013634e+00 4.9935713700e-03 0.0000e+00 0.0000e+00
       11  1    1    2    0    0 +7.4810009614e-04 -3.2372484512e-03 +1.0868004247e-02 1.1376030393e-02 5.1099893000e-04 0.0000e+00 1.0000e+00
<vert_displacement>
229.43961127641887
</vert_displacement>
</event>
<event>
 4   1200 +8.6263000e+09 1.11378900e-02 7.81665300e-03            nan
       50 -1    0    0    0    0 -8.0632469328e-04 -8.1855825906e-03 +3.7598672004e+00 3.7598795133e+00 4.9935713700e-03 0.0000e+00 0.0000e+00
       11 -1    0    0    0    0 +4.2410317348e-20 +4.3053767079e-19 -1.9775800305e-16 5.1100000000e-04 5.1099893000e-04 0.0000e+00 -1.0000e+00
       50  1    1    2    0    0 -3.7444756051e-03 +1.5370413138e-03 +3.6602327021e+00 3.6602383465e+00 4.9935713700e-03 0.0000e+00 0.0000e+00
       11  1    1    2    0    0 +2.9381509118e-03 -9.7226239044e-03 +9.9634498283e-02 1.0015216680e-01 5.1099893000e-04 0.0000e+00 -1.0000e+00
<vert_displacement>
212.34147396943411
</vert_displacement>
</event>
<event>
 4   1200 +8.6263000e+09 1.98249800e-02 7.81665300e-03            nan
       50 -1    0    0    0    0 -3.5057721393e-02 +4.4821748420e-02 +2.1811649805e+01 2.1811724603e+01 4.9935713700e-03 0.0000e+00 0.0000e+00
       11 -1    0    0    0    0 -8.9222404943e-20 +1.1407199410e-19 +5.5510962322e-17 5.1100000000e-04 5.1099893000e-04 0.0000e+00 1.0000e+00
       50  1    1    2    0    0 -3.8849645697e-02 +6.2747845421e-02 +2.1445267063e+01 2.1445394632e+01 4.9935713700e-03 0.0000e+00 0.0000e+00
       11  1    1    2    0    0 +3.7919243042e-03 -1.7926097001e-02 +3.6638274185e-01 3.6684097138e-01 5.1099893000e-04 0.0000e+00 1.0000e+00
<vert_displacement>
339.53815017078279
</vert_displacement>
</event>
<event>
 4   1200 +8.6263000e+09 1.37513400e-02 7.81665300e-03            nan
       50 -1    0    0    0    0 +1.9631699831e-02 -3.0692800591e-03 +2.5679995903e+01 2.5680004076e+01 4.9935713700e-03 0.0000e+00 0.0000e+00
       11 -1    0    0    0    0 +2.1961065802e-18 -3.4334602670e-19 +2.8727012163e-15 5.1100000000e-04 5.1099893000e-04 0.0000e+00 1.0000e+00
       50  1    1    2    0    0 +7.1224885924e-03 +2.3023439105e-04 +2.5518354273e+01 2.5518355757e+01 4.9935713700e-03 0.0000e+00 0.0000e+00
       11  1    1    2    0    0 +1.2509211238e-02 -3.2995144502e-03 +1.6164162971e-01 1.6215931899e-01 5.1099893000e-04 0.0000e+00 1.0000e+00
<vert_displacement>
390.97884080509999
</vert_displacement>
</event>
<event>
 4   1200 +8.6263000e+09 3.36392900e-02 7.81665300e-03            nan
       50 -1    0    0    0    0 -5.0389665234e-03 -7.1347979282e-02 +4.1470030014e+01 4.1470091996e+01 4.9935713700e-03 0.0000e+00 0.0000e+00
       11 -1    0    0    0    0 +6.2729187181e-19 +8.8819815067e-18 -5.1625293858e-15 5.1100000000e-04 5.1099893000e-04 0.0000e+00 1.0000e+00
       50  1    1    2    0    0 -1.0490413654e-02 -3.6639469488e-02 +4.0357356082e+01 4.0357374386e+01 4.9935713700e-03 0.0000e+00 0.0000e+00
       11  1    1    2    0    0 +5.4514471302e-03 -3.4708509794e-02 +1.1126739317e+00 1.1132286101e+00 5.1099893000e-04 0.0000e+00 1.0000e+00
<vert_displacement>
185.74298233245784
</vert_displacement>
</event>
<event>
 4   1200 +8.6263000e+09 3.57737300e-02 7.81665300e-03            nan
       50 -1    0    0    0    0 +2.9965724262e-02 -5.3975434440e-02 +2.7074965135e+01 2.7075035979e+01 4.9935713700e-03 0.0000e+00 0.0000e+00
       11 -1    0    0    0    0 +2.1503245953e-18 -3.8732487559e-18 +1.9428852424e-15 5.1100000000e-04 5.1099893000e-04 0.0000e+00 1.0000e+00
       50  1    1    2    0    0 -6.8526540155e-03 -4.9899158623e-02 +2.5785726160e+01 2.5785775835e+01 4.9935713700e-03 0.0000e+00 0.0000e+00
       11  1    1    2    0    0 +3.6818378277e-02 -4.0762758161e-03 +1.2892389752e+00 1.2897711446e+00 5.1099893000e-04 0.0000e+00 1.0000e+00
<vert_displacement>
81.686150291516043
</vert_displacement>
</event>
<event>
 4   1200 +8.6263000e+09 1.34435500e-02 7.81665300e-03            nan
       50 -1    0    0    0    0 -2.9269421348e-02 +1.6268736562e-02 +2.2341801348e+01 2.2341827002e+01 4.9935713700e-03 0.0000e+00 0.0000e+00
       11 -1    0    0    0    0 +1.7817295436e-18 -9.9033350289e-19 -1.3600216775e-15 5.1100000000e-04 5.1099893000e-04 0.0000e+00 -1.0000e+00
       50  1    1    2    0    0 -2.6304960179e-02 +2.8328940904e-02 +2.2188297436e+01 2.2188331675e+01 4.9935713700e-03 0.0000e+00 0.0000e+00
       11  1    1    2    0    0 -2.9644611689e-03 -1.2060204341e-02 +1.5350391277e-01 1.5400632751e-01 5.1099893000e-04 0.0000e+00 -1.0000e+00
<vert_displacement>
70.553627884459033
</vert_displacement>
</event>
<event>
 4   1200 +8.6263000e+09 1.33732400e-02 7.81665300e-03            nan
       50 -1    0    0    0    0 +1.1751887334e-02 +7.3707172370e-03 +8.7081104418e+00 8.7081229227e+00 4.9935713700e-03 0.0000e+00 0.0000e+00
       11 -1    0    0    0    0 +2.8841915716e-18 +1.8089486334e-18 +2.1371766107e-15 5.1100000000e-04 5.1099893000e-04 0.0000e+00 1.0000e+00
       50  1    1    2    0    0 +4.1742026626e-03 -2.7379665830e-03 +8.5548189981e+00 8.5548219121e+00 4.9935713700e-03 0.0000e+00 0.0000e+00
       11  1    1    2    0    0 +7.5776846710e-03 +1.0108683820e-02 +1.5329144366e-01 1.5381201063e-01 5.1099893000e-04 0.0000e+00 1.0000e+00
<vert_displacement>
487.12640223991326
</vert_displacement>
</event>
<event>
 4   1200 +8.6263000e+09 9.29153400e-03 7.81665300e-03            nan
       50 -1    0    0    0    0 +2.0333446453e-02 -1.9066019914e-02 +8.3535269946e+00 8.3535749920e+00 4.9935713700e-03 0.0000e+00 0.0000e+00
       11 -1    0    0    0    0 +3.3611045503e-18 -3.1515998252e-18 +1.3808321996e-15 5.1100000000e-04 5.1099893000e-04 0.0000e+00 1.0000e+00
       50  1    1    2    0    0 +1.6037554632e-02 -1.2280679005e-02 +8.2930340239e+00 8.2930601273e+00 4.9935713700e-03 0.0000e+00 0.0000e+00
       11  1    1    2    0    0 +4.2958918210e-03 -6.7853409086e-03 +6.0492970745e-02 6.1025864740e-02 5.1099893000e-04 0.0000e+00 1.0000e+00
<vert_displacement>
294.21535013212952
</vert_displacement>
</event>
<event>
 4   1200 +8.6263000e+09 7.79228000e-03 7.81665300e-03            nan
       50 -1    0    0    0    0 -4.7282121398e-03 -2.3566512419e-02 +2.1441983176e+01 2.1441997230e+01 4.9935713700e-03 0.0000e+00 0.0000e+00
       11 -1    0    0    0    0 +3.9170754993e-19 +1.9523618160e-18 -1.7763557233e-15 5.1100000000e-04 5.1099893000e-04 0.0000e+00 1.0000e+00
       50  1    1    2    0    0 -2.5467411945e-03 -1.7954933315e-02 +2.1406917971e+01 2.1406926235e+01 4.9935713700e-03 0.0000e+00 0.0000e+00
       11  1    1    2    0    0 -2.1814709453e-03 -5.6115791040e-03 +3.5065205310e-02 3.5581995150e-02 5.1099893000e-04 0.0000e+00 1.0000e+00
<vert_displacement>
290.90160527511489
</vert_displacement>
</event>
<event>
 4   1200 +8.6263000e+09 1.00832600e-02 7.81665300e-03            nan
       50 -1    0    0    0    0 -2.7278090785e-02 -8.3211582754e-03 +1.3572987192e+01 1.3573018072e+01 4.9935713700e-03 0.0000e+00 0.0000e+00
       11 -1    0    0    0    0 +9.2038971125e-19 +2.8076409463e-19 -4.5796598673e-16 5.1100000000e-04 5.1099893000e-04 0.0000e+00 1.0000e+00
       50  1    1    2    0    0 -3.3892059315e-02 -1.3839144740e-02 +1.3497462131e+01 1.3497512701e+01 4.9935713700e-03 0.0000e+00 0.0000e+00
       11  1    1    2    0    0 +6.6139685305e-03 +5.5179864644e-03 +7.5525060684e-02 7.6016371036e-02 5.1099893000e-04 0.0000e+00 1.0000e+00
<vert_displacement>
225.86590736216925
</vert_displacement>
</event>
<event>
 4   1200 +8.6263000e+09 1.64861600e-02 7.81665300e-03            nan
       50 -1    0    0    0    0 +2.5597025511e-02 +2.8277780937e-02 +1.2615181305e+01 1.2615239956e+01 4.9935713700e-03 0.0000e+00 0.0000e+00
       11 -1    0    0    0    0 +2.2245458106e-18 +2.4575206635e-18 +1.0963402256e-15 5.1100000000e-04 5.1099893000e-04 0.0000e+00 1.0000e+00
       50  1    1    2    0    0 +1.0929794525e-02 +2.0932674279e-02 +1.2368851966e+01 1.2368875516e+01 4.9935713700e-03 0.0000e+00 0.0000e+00
       11  1    1    2    0    0 +1.4667230986e-02 +7.3451066584e-03 +2.4632933903e-01 2.4687543953e-01 5.1099893000e-04 0.0000e+00 1.0000e+00
<vert_displacement>
301.55826361522514
</vert_displacement>
</event>
<event>
 4   1200 +8.6263000e+09 9.66386800e-03 7.81665300e-03            nan
       50 -1    0    0    0    0 +1.6881664750e-02 -4.1428184704e-03 +4.8608241113e+00 4.8608577567e+00 4.9935713700e-03 0.0000e+00 0.0000e+00
       11 -1    0    0    0    0 -4.8197313437e-19 +1.1827786139e-19 -1.3877699073e-16 5.1100000000e-04 5.1099893000e-04 0.0000e+00 1.0000e+00
       50  1    1    2    0    0 +2.4111211420e-02 -7.6514121464e-03 +4.7928531099e+00 4.7929224658e+00 4.9935713700e-03 0.0000e+00 0.0000e+00
       11  1    1    2    0    0 -7.2295466695e-03 +3.5085936760e-03 +6.7971001416e-02 6.8446290827e-02 5.1099893000e-04 0.0000e+00 1.0000e+00
<vert_displacement>
0.66296637030186278
</vert_displacement>
</event>
<event>
 4   1200 +8.6263000e+09 1.30679200e-02 7.81665300e-03            nan
       50 -1    0    0    0    0 +2.7608745125e-02 -3.1376377553e-02 +1.6637615280e+01 1.6637668523e+01 4.9935713700e-03 0.0000e+00 0.0000e+00
       11 -1    0    0    0    0 -3.8918954675e-18 +4.4230036908e-18 -2.3453387398e-15 5.1100000000e-04 5.1099893000e-04 0.0000e+00 1.0000e+00
       50  1    1    2    0    0 +1.5597377990e-02 -2.8413757583e-02 +1.6493693362e+01 1.6493725967e+01 4.9935713700e-03 0.0000e+00 0.0000e+00
       11  1    1    2    0    0 +1.2011367135e-02 -2.9626199701e-03 +1.4392191822e-01 1.4445355558e-01 5.1099893000e-04 0.0000e+00 1.0000e+00
<vert_displacement>
316.19538290884248
</vert_displacement>
</event>
<event>
 4   1200 +8.6263000e+09 6.62785000e-03 7.81665300e-03            nan
       50 -1    0    0    0    0 +6.0232674422e-03 -1.4889075184e-02 +7.7842544156e+00 7.7842725869e+00 4.9935713700e-03 0.0000e+00 0.0000e+00
       11 -1    0    0    0    0 -4.2953092271e-20 +1.0617689259e-19 -5.5511033070e-17 5.1100000000e-04 5.1099893000e-04 0.0000e+00 1.0000e+00
       50  1    1    2    0    0 +4.9176364388e-03 -1.9072664372e-02 +7.7656174833e+00 7.7656440675e+00 4.9935713700e-03 0.0000e+00 0.0000e+00
       11  1    1    2    0    0 +1.1056310034e-03 +4.1835891879e-03 +1.8636932258e-02 1.9139519386e-02 5.1099893000e-04 0.0000e+00 1.0000e+00
<vert_displacement>
111.47604024598836
</vert_displacement>
</event>
<event>
 4   1200 +8.6263000e+09 1.18730100e-02 7.81665300e-03            nan
       50 -1    0    0    0    0 +8.2529189412e-02 -6.0725655487e-02 +2.6020544548e+01 2.6020746765e+01 4.9935713700e-03 0.0000e+00 0.0000e+00
       11 -1    0    0    0    0 +7.1745667194e-18 -5.2791051260e-18 +2.2620618749e-15 5.1100000000e-04 5.1099893000e-04 0.0000e+00 1.0000e+00
       50  1    1    2    0    0 +7.1397430077e-02 -6.0651975714e-02 +2.5906541841e+01 2.5906711704e+01 4.9935713700e-03 0.0000e+00 0.0000e+00
       11  1    1    2    0    0 +1.1131759335e-02 -7.3679772869e-05 +1.1400270763e-01 1.1454606043e-01 5.1099893000e-04 0.0000e+00 1.0000e+00
<vert_displacement>
284.65163859331363
</vert_displacement>
</event>
<event>
 4   1200 +8.6263000e+09 1.19687700e-02 7.81665300e-03            nan
       50 -1    0    0    0    0 +1.9148292020e-02 +2.0893980136e-02 +1.7923123779e+01 1.7923146882e+01 4.9935713700e-03 0.0000e+00 0.0000e+00
       11 -1    0    0    0    0 +4.8927156625e-19 +5.3387687925e-19 +4.5796642511e-16 5.1100000000e-04 5.1099893000e-04 0.0000e+00 -1.0000e+00
       50  1    1    2    0    0 +8.3117198020e-03 +1.8869531125e-02 +1.7806606930e+01 1.7806619568e+01 4.9935713700e-03 0.0000e+00 0.0000e+00
       11  1    1    2    0    0 +1.0836572218e-02 +2.0244490112e-03 +1.1651684862e-01 1.1703831349e-01 5.1099893000e-04 0.0000e+00 -1.0000e+00
<vert_displacement>
79.623828534973455
</vert_displacement>
</event>
<event>
 4   1200 +8.6263000e+09 5.17034300e-03 7.81665300e-03            nan
       50 -1    0    0    0    0 -4.1429643378e-02 +3.5562695628e-02 +2.0191971294e+01 2.0192045731e+01 4.9935713700e-03 0.0000e+00 0.0000e+00
       11 -1    0    0    0    0 +1.0820186003e-18 -9.2879144033e-19 -5.2735400876e-16 5.1100000000e-04 5.1099893000e-04 0.0000e+00 1.0000e+00
       50  1    1    2    0    0 -4.0203254387e-02 +3.5010525089e-02 +2.0190216567e+01 2.0190287566e+01 4.9935713700e-03 0.0000e+00 0.0000e+00
       11  1    1    2    0    0 -1.2263889912e-03 +5.5217053831e-04 +1.7547270586e-03 2.2691648723e-03 5.1099893000e-04 0.0000e+00 1.0000e+00
<vert_displacement>
453.25623753978516
</vert_displacement>
</event>
<event>
 4   1200 +8.6263000e+09 6.40607900e-03 7.81665300e-03            nan
       50 -1    0    0    0    0 +1.5207570555e-02 +1.8507862475e-02 +9.5974687487e+00 9.5974999416e+00 4.9935713700e-03 0.0000e+00 0.0000e+00
       11 -1    0    0    0    0 +1.2094410721e-18 +1.4719095962e-18 +7.6327595201e-16 5.1100000000e-04 5.1099893000e-04 0.0000e+00 1.0000e+00
       50  1    1    2    0    0 +1.5462791508e-02 +1.4474490193e-02 +9.5816937453e+00 9.5817184561e+00 4.9935713700e-03 0.0000e+00 0.0000e+00
       11  1    1    2    0    0 -2.5522095303e-04 +4.0333722816e-03 +1.5775003385e-02 1.6292485427e-02 5.1099893000e-04 0.0000e+00 1.0000e+00
<vert_displacement>
204.14341496810539
</vert_displacement>
</event>
<event>
 4   1200 +8.6263000e+09 2.37333400e-02 7.81665300e-03            nan
       50 -1    0    0    0    0 +4.0239001233e-02 -1.9162951183e-02 +1.5308869157e+01 1.5308934849e+01 4.9935713700e-03 0.0000e+00 0.0000e+00
       11 -1    0    0    0    0 +5.4715924648e-20 -2.6057271822e-20 +2.0816593493e-17 5.1100000000e-04 5.1099893000e-04 0.0000e+00 1.0000e+00
       50  1    1    2    0    0 +6.1882455943e-02 -1.6096814971e-02 +1.4762524380e+01 1.4762663702e+01 4.9935713700e-03 0.0000e+00 0.0000e+00
       11  1    1    2    0    0 -2.1643454710e-02 -3.0661362123e-03 +5.4634477666e-01 5.4678214714e-01 5.1099893000e-04 0.0000e+00 1.0000e+00
<vert_displacement>
48.995896195483361
</vert_displacement>
</event>
<event>
 4   1200 +8.6263000e+09 6.73726600e-03 7.81665300e-03            nan
       50 -1    0    0    0    0 +1.5666113909e-02 +2.1627295485e-02 +8.9654703579e+00 8.9655115215e+00 4.9935713700e-03 0.0000e+00 0.0000e+00
       11 -1    0    0    0    0 +1.9521015107e-18 +2.6949042011e-18 +1.1171569626e-15 5.1100000000e-04 5.1099893000e-04 0.0000e+00 1.0000e+00
       50  1    1    2    0    0 +1.1561425582e-02 +2.3551988495e-02 +8.9454119742e+00 8.9454518436e+00 4.9935713700e-03 0.0000e+00 0.0000e+00
       11  1    1    2    0    0 +4.1046883265e-03 -1.9246930100e-03 +2.0058383762e-02 2.0570677881e-02 5.1099893000e-04 0.0000e+00 1.0000e+00
<vert_displacement>
324.18165373544531
</vert_displacement>
</event>
<event>
 4   1200 +8.6263000e+09 3.10837800e-02 7.81665300e-03            nan
       50 -1    0    0    0    0 +6.5712557256e-03 +3.4680529412e-03 +9.6016196923e+00 9.6016238657e+00 4.9935713700e-03 0.0000e+00 0.0000e+00
       11 -1    0    0    0    0 +4.7963996123e-19 +2.5313529829e-19 +7.0082807445e-16 5.1100000000e-04 5.1099893000e-04 0.0000e+00 1.0000e+00
       50  1    1    2    0    0 -2.1764075787e-02 -1.0243235603e-02 +8.5693213231e+00 8.5693565378e+00 4.9935713700e-03 0.0000e+00 0.0000e+00
       11  1    1    2    0    0 +2.8335331513e-02 +1.3711288544e-02 +1.0322983692e+00 1.0327783279e+00 5.1099893000e-04 0.0000e+00 1.0000e+00
<vert_displacement>
149.97749050953084
</vert_displacement>
</event>
<event>
 4   1200 +8.6263000e+09 1.20170500e-02 7.81665300e-03            nan
       50 -1    0    0    0    0 +4.0801831603e-04 +1.3435208947e-02 +5.9544255667e+00 5.9544428318e+00 4.9935713700e-03 0.0000e+00 0.0000e+00
       11 -1    0    0    0    0 -3.7562632412e-20 -1.2368606879e-18 -5.4817122173e-16 5.1100000000e-04 5.1099893000e-04 0.0000e+00 1.0000e+00
       50  1    1    2    0    0 -9.6576198045e-03 +8.8856954128e-03 +5.8351238988e+00 5.8351407931e+00 4.9935713700e-03 0.0000e+00 0.0000e+00
       11  1    1    2    0    0 +1.0065638121e-02 +4.5495135342e-03 +1.1930166798e-01 1.1981303872e-01 5.1099893000e-04 0.0000e+00 1.0000e+00
<vert_displacement>
126.53076104591489
</vert_displacement>
</event>
<event>
 4   1200 +8.6263000e+09 6.78283200e-03 7.81665300e-03            nan
       50 -1    0    0    0    0 +1.5716241776e-01 +9.4494788427e-02 +4.6679072194e+01 4.6679432678e+01 4.9935713700e-03 0.0000e+00 0.0000e+00
       11 -1    0    0    0    0 -3.6445002145e-18 -2.1912762707e-18 -1.0824590958e-15 5.1100000000e-04 5.1099893000e-04 0.0000e+00 1.0000e+00
       50  1    1    2    0    0 +1.5763757280e-01 +8.9895138011e-02 +4.6658452935e+01 4.6658806092e+01 4.9935713700e-03 0.0000e+00 0.0000e+00
       11  1    1    2    0    0 -4.7515503863e-04 +4.5996504155e-03 +2.0619259243e-02 2.1137585669e-02 5.1099893000e-04 0.0000e+00 1.0000e+00
<vert_displacement>
424.82995994936692
</vert_displacement>
</event>
<event>
 4   1200 +8.6263000e+09 1.74025800e-02 7.81665300e-03            nan
       50 -1    0    0    0    0 +7.7032931322e-02 -3.5252803150e-02 +3.9484267339e+01 3.9484358537e+01 4.9935713700e-03 0.0000e+00 0.0000e+00
       11 -1    0    0    0    0 -5.4150388825e-20 +2.4780999048e-20 -2.7755511730e-17 5.1100000000e-04 5.1099893000e-04 0.0000e+00 1.0000e+00
       50  1    1    2    0    0 +8.4882778639e-02 -4.9417348737e-02 +3.9210403305e+01 3.9210526640e+01 4.9935713700e-03 0.0000e+00 0.0000e+00
       11  1    1    2    0    0 -7.8498473168e-03 +1.4164545587e-02 +2.7386403432e-01 2.7434289651e-01 5.1099893000e-04 0.0000e+00 1.0000e+00
<vert_displacement>
308.94371451907637
</vert_displacement>
</event>
<event>
 4   1200 +8.6263000e+09 1.03015000e-02 7.81665300e-03            nan
       50 -1    0    0    0    0 +5.7786577909e-03 -1.2102868654e-02 +1.8083247694e+01 1.8083253357e+01 4.9935713700e-03 0.0000e+00 0.0000e+00
       11 -1    0    0    0    0 +7.0956249397e-20 -1.4861135539e-19 +2.2204454386e-16 5.1100000000e-04 5.1099893000e-04 0.0000e+00 1.0000e+00
       50  1    1    2    0    0 +1.4762916693e-02 -1.1952900941e-02 +1.8003452668e+01 1.8003463382e+01 4.9935713700e-03 0.0000e+00 0.0000e+00
       11  1    1    2    0    0 -8.9842589017e-03 -1.4996771236e-04 +7.9795025666e-02 8.0300975332e-02 5.1099893000e-04 0.0000e+00 1.0000e+00
<vert_displacement>
462.00425218364200
</vert_displacement>
</event>
<event>
 4   1200 +8.6263000e+09 1.13101500e-02 7.81665300e-03            nan
       50 -1    0    0    0    0 -6.7966736038e-04 -5.9303855724e-03 +3.1636621808e+00 3.1636717531e+00 4.9935713700e-03 0.0000e+00 0.0000e+00
       11 -1    0    0    0    0 -1.4161830459e-20 -1.2356796858e-19 +6.5919374750e-17 5.1100000000e-04 5.1099893000e-04 0.0000e+00 1.0000e+00
       50  1    1    2    0    0 -9.4455849535e-03 -1.0809347223e-02 +3.0594065068e+00 3.0594442585e+00 4.9935713700e-03 0.0000e+00 0.0000e+00
       11  1    1    2    0    0 +8.7659175931e-03 +4.8789616508e-03 +1.0425567396e-01 1.0473849459e-01 5.1099893000e-04 0.0000e+00 1.0000e+00
<vert_displacement>
455.38572069655726
</vert_displacement>
</event>
<event>
 4   1200 +8.6263000e+09 1.42046400e-02 7.81665300e-03            nan
       50 -1    0    0    0    0 +4.7724496322e-02 +1.8430138803e-02 +1.5806535798e+01 1.5806619379e+01 4.9935713700e-03 0.0000e+00 0.0000e+00
       11 -1    0    0    0    0 +7.9611576373e-19 +3.0744219760e-19 +2.6367658726e-16 5.1100000000e-04 5.1099893000e-04 0.0000e+00 1.0000e+00
       50  1    1    2    0    0 +5.7277527867e-02 +9.5541875319e-03 +1.5631541502e+01 1.5631650158e+01 4.9935713700e-03 0.0000e+00 0.0000e+00
       11  1    1    2    0    0 -9.5530315456e-03 +8.8759512710e-03 +1.7499429650e-01 1.7548022068e-01 5.1099893000e-04 0.0000e+00 1.0000e+00
<vert_displacement>
208.58118409559401
</vert_displacement>
</event>
<event>
 4   1200 +8.6263000e+09 1.77813100e-02 7.81665300e-03            nan
       50 -1    0    0    0    0 -4.2842798551e-02 +1.2774212817e-02 +2.5036980488e+01 2.5037020900e+01 4.9935713700e-03 0.0000e+00 0.0000e+00
       11 -1    0    0    0    0 -0.0000000000e+00 +0.0000000000e+00 +0.0000000000e+00 5.1100000000e-04 5.1099893000e-04 0.0000e+00 1.0000e+00
       50  1    1    2    0    0 -5.9298722065e-02 +1.4617391642e-02 +2.4748652221e+01 2.4748728083e+01 4.9935713700e-03 0.0000e+00 0.0000e+00
       11  1    1    2    0    0 +1.6455923514e-02 -1.8431788257e-03 +2.8832826637e-01 2.8880381756e-01 5.1099893000e-04 0.0000e+00 1.0000e+00
<vert_displacement>
34.607819506137304
</vert_displacement>
</event>
<event>
 4   1200 +8.6263000e+09 7.79824500e-03 7.81665300e-03            nan
       50 -1    0    0    0    0 -1.9080419183e-03 -6.8352241624e-04 +1.8554422557e+00 1.8554500822e+00 4.9935713700e-03 0.0000e+00 0.0000e+00
       11 -1    0    0    0    0 -4.6381395716e-20 -1.6615318230e-20 +4.5102783467e-17 5.1100000000e-04 5.1099893000e-04 0.0000e+00 1.0000e+00
       50  1    1    2    0    0 +4.1185062547e-03 -6.8098900565e-04 +1.8196337580e+00 1.8196453981e+00 4.9935713700e-03 0.0000e+00 0.0000e+00
       11  1    1    2    0    0 -6.0265481731e-03 -2.5334105919e-06 +3.5808497678e-02 3.6315684148e-02 5.1099893000e-04 0.0000e+00 1.0000e+00
<vert_displacement>
465.55546879274090
</vert_displacement>
</event>
<event>
 4   1200 +8.6263000e+09 1.20486900e-02 7.81665300e-03            nan
       50 -1    0    0    0    0 -1.0897358815e-02 +1.2013057171e-02 +5.7776050733e+00 5.7776299972e+00 4.9935713700e-03 0.0000e+00 0.0000e+00
       11 -1    0    0    0    0 +6.9364586887e-19 -7.6466303628e-19 -3.6775992779e-16 5.1100000000e-04 5.1099893000e-04 0.0000e+00 1.0000e+00
       50  1    1    2    0    0 -4.6071566129e-03 +2.6271465748e-03 +5.6574689221e+00 5.6574736118e+00 4.9935713700e-03 0.0000e+00 0.0000e+00
       11  1    1    2    0    0 -6.2902022025e-03 +9.3859105962e-03 +1.2013615122e-01 1.2066738545e-01 5.1099893000e-04 0.0000e+00 1.0000e+00
<vert_displacement>
254.19299628013368
</vert_displacement>
</event>
<event>
 4   1200 +8.6263000e+09 1.55773200e-02 7.81665300e-03            nan
       50 -1    0    0    0    0 +4.1367717412e-02 -7.0395524593e-02 +2.9533150734e+01 2.9533264026e+01 4.9935713700e-03 0.0000e+00 0.0000e+00
       11 -1    0    0    0    0 +2.1382724688e-18 -3.6387023887e-18 +1.5265508247e-15 5.1100000000e-04 5.1099893000e-04 0.0000e+00 1.0000e+00
       50  1    1    2    0    0 +3.0811868920e-02 -8.0492811521e-02 +2.9318545994e+01 2.9318673104e+01 4.9935713700e-03 0.0000e+00 0.0000e+00
       11  1    1    2    0    0 +1.0555848492e-02 +1.0097286929e-02 +2.1460473997e-01 2.1510192160e-01 5.1099893000e-04 0.0000e+00 1.0000e+00
<vert_displacement>
364.59919081445958
</vert_displacement>
</event>
<event>
 4   1200 +8.6263000e+09 5.39816800e-02 7.81665300e-03            nan
       50 -1    0    0    0    0 -3.2457976669e-03 -3.1531897147e-02 +1.4323425132e+01 1.4323461077e+01 4.9935713700e-03 0.0000e+00 0.0000e+00
       11 -1    0    0    0    0 +8.4909738794e-20 +8.2487124128e-19 -3.7469935325e-16 5.1100000000e-04 5.1099893000e-04 0.0000e+00 1.0000e+00
       50  1    1    2    0    0 +3.5674480657e-02 -6.0964418325e-02 +1.0443801152e+01 1.0444041208e+01 4.9935713700e-03 0.0000e+00 0.0000e+00
       11  1    1    2    0    0 -3.8920278324e-02 +2.9432521178e-02 +3.8796239802e+00 3.8799308692e+00 5.1099893000e-04 0.0000e+00 1.0000e+00
<vert_displacement>
12.405048699590996
</vert_displacement>
</event>
<event>
 4   1200 +8.6263000e+09 1.86492300e-02 7.81665300e-03            nan
       50 -1    0    0    0    0 -6.0292067818e-02 -1.6446003075e-02 +2.8639492968e+01 2.8639561589e+01 4.9935713700e-03 0.0000e+00 0.0000e+00
       11 -1    0    0    0    0 -1.4315619377e-18 -3.9049037263e-19 +6.8000998360e-16 5.1100000000e-04 5.1099893000e-04 0.0000e+00 1.0000e+00
       50  1    1    2    0    0 -6.4532694100e-02 +1.0209346890e-03 +2.8320012610e+01 2.8320086594e+01 4.9935713700e-03 0.0000e+00 0.0000e+00
       11  1    1    2    0    0 +4.2406262817e-03 -1.7466937763e-02 +3.1948035732e-01 3.1998599447e-01 5.1099893000e-04 0.0000e+00 1.0000e+00
<vert_displacement>
76.250712318373274
</vert_displacement>
</event>
<event>
 4   1200 +8.6263000e+09 5.52799200e-03 7.81665300e-03            nan
       50 -1    0    0    0    0 -2.9025137432e-02 +2.5568406201e-02 +1.0143082902e+01 1.0143157886e+01 4.9935713700e-03 0.0000e+00 0.0000e+00
       11 -1    0    0    0    0 +1.9855983300e-20 -1.7491246948e-20 -6.9388434487e-18 5.1100000000e-04 5.1099893000e-04 0.0000e+00 1.0000e+00
       50  1    1    2    0    0 -2.8314375656e-02 +2.3287406352e-02 +1.0137585475e+01 1.0137652993e+01 4.9935713700e-03 0.0000e+00 0.0000e+00
       11  1    1    2    0    0 -7.1076177645e-04 +2.2809998482e-03 +5.4974275500e-03 6.0158932989e-03 5.1099893000e-04 0.0000e+00 1.0000e+00
<vert_displacement>
369.66822129431915
</vert_displacement>
</event>
<event>
 4   1200 +8.6263000e+09 6.22264200e-03 7.81665300e-03            nan
       50 -1    0    0    0    0 -1.6370999598e-02 -1.2399521558e-03 +6.5209771309e+00 6.5209997105e+00 4.9935713700e-03 0.0000e+00 0.0000e+00
       11 -1    0    0    0    0 +4.8776363971e-19 +3.6943594858e-20 -1.9428841353e-16 5.1100000000e-04 5.1099893000e-04 0.0000e+00 1.0000e+00
       50  1    1    2    0    0 -1.6903727672e-02 -4.9067688582e-03 +6.5074571046e+00 6.5074828249e+00 4.9935713700e-03 0.0000e+00 0.0000e+00
       11  1    1    2    0    0 +5.3272807423e-04 +3.6668167024e-03 +1.3520026326e-02 1.4027885646e-02 5.1099893000e-04 0.0000e+00 1.0000e+00
<vert_displacement>
147.66909790738538
</vert_displacement>
</event>
<event>
 4   1200 +8.6263000e+09 7.37422900e-03 7.81665300e-03            nan
       50 -1    0    0    0    0 +2.3893845141e-02 +2.2106898593e-02 +1.4701465213e+01 1.4701502099e+01 4.9935713700e-03 0.0000e+00 0.0000e+00
       11 -1    0    0    0    0 -1.1503096904e-18 -1.0642815974e-18 -7.0776544323e-16 5.1100000000e-04 5.1099893000e-04 0.0000e+00 1.0000e+00
       50  1    1    2    0    0 +2.9069385678e-02 +2.0590601735e-02 +1.4672591540e+01 1.4672635634e+01 4.9935713700e-03 0.0000e+00 0.0000e+00
       11  1    1    2    0    0 -5.1755405369e-03 +1.5162968586e-03 +2.8873672932e-02 2.9377465590e-02 5.1099893000e-04 0.0000e+00 1.0000e+00
<vert_displacement>
236.63698029805346
</vert_displacement>
</event>
<event>
 4   1200 +8.6263000e+09 5.39703100e-03 7.81665300e-03            nan
       50 -1    0    0    0    0 +7.3167717032e-02 -1.7868171386e-02 +2.5151255226e+01 2.5151368495e+01 4.9935713700e-03 0.0000e+00 0.0000e+00
       11 -1    0    0    0    0 +3.8756930014e-18 -9.4647680152e-19 +1.3322616560e-15 5.1100000000e-04 5.1099893000e-04 0.0000e+00 1.0000e+00
       50  1    1    2    0    0 +7.3680192749e-02 -1.5886070677e-02 +2.5147152431e+01 2.5147265884e+01 4.9935713700e-03 0.0000e+00 0.0000e+00
       11  1    1    2    0    0 -5.1247571734e-04 -1.9821007096e-03 +4.1027947873e-03 4.6136102520e-03 5.1099893000e-04 0.0000e+00 1.0000e+00
<vert_displacement>
88.086560448422233
</vert_displacement>
</event>
<event>
 4   1200 +8.6263000e+09 1.15455600e-02 7.81665300e-03            nan
       50 -1    0    0    0    0 +1.1782695377e-02 -5.3805329232e-03 +3.8611113644e+00 3.8611363206e+00 4.9935713700e-03 0.0000e+00 0.0000e+00
       11 -1    0    0    0    0 +1.5669381157e-18 -7.1553764659e-19 +5.1347525948e-16 5.1100000000e-04 5.1099893000e-04 0.0000e+00 1.0000e+00
       50  1    1    2    0    0 +4.0546634478e-03 -1.2555017311e-02 +3.7519737755e+00 3.7520002954e+00 4.9935713700e-03 0.0000e+00 0.0000e+00
       11  1    1    2    0    0 +7.7280319287e-03 +7.1744843876e-03 +1.0913758886e-01 1.0964702516e-01 5.1099893000e-04 0.0000e+00 1.0000e+00
<vert_displacement>
460.18233565809237
</vert_displacement>
</event>
<event>
 4   1200 +8.6263000e+09 3.37064500e-02 7.81665300e-03            nan
       50 -1    0    0    0    0 -1.3414277365e-01 +3.0983622441e-02 +4.7528298862e+01 4.7528498523e+01 4.9935713700e-03 0.0000e+00 0.0000e+00
       11 -1    0    0    0    0 -2.1150819172e-18 +4.8853097170e-19 +7.4939739761e-16 5.1100000000e-04 5.1099893000e-04 0.0000e+00 1.0000e+00
       50  1    1    2    0    0 -9.8629810928e-02 +3.8215521966e-02 +4.6415014441e+01 4.6415135234e+01 4.9935713700e-03 0.0000e+00 0.0000e+00
       11  1    1    2    0    0 -3.5512962718e-02 -7.2318995252e-03 +1.1132844202e+00 1.1138742892e+00 5.1099893000e-04 0.0000e+00 1.0000e+00
<vert_displacement>
354.31986685703833
</vert_displacement>
</event>
<event>
 4   1200 +8.6263000e+09 1.11880400e-02 7.81665300e-03            nan
       50 -1    0    0    0    0 +1.0069197099e-01 +1.3163630094e-02 +3.3860043473e+01 3.3860196117e+01 4.9935713700e-03 0.0000e+00 0.0000e+00
       11 -1    0    0    0    0 -7.6760636029e-18 -1.0035046573e-18 -2.5812569238e-15 5.1100000000e-04 5.1099893000e-04 0.0000e+00 1.0000e+00
       50  1    1    2    0    0 +1.0414581078e-01 +3.8409313473e-03 +3.3761670274e+01 3.3761831493e+01 4.9935713700e-03 0.0000e+00 0.0000e+00
       11  1    1    2    0    0 -3.4538397917e-03 +9.3226987464e-03 +9.8373198621e-02 9.8875624135e-02 5.1099893000e-04 0.0000e+00 1.0000e+00
<vert_displacement>
355.93654844418313
</vert_displacement>
</event>
<event>
 4   1200 +8.6263000e+09 1.66698000e-02 7.81665300e-03            nan
       50 -1    0    0    0    0 +5.6305914462e-02 +1.8111472919e-02 +1.9250675921e+01 1.9250767433e+01 4.9935713700e-03 0.0000e+00 0.0000e+00
       11 -1    0    0    0    0 -4.5055644358e-18 -1.4492688564e-18 -1.5404271758e-15 5.1100000000e-04 5.1099893000e-04 0.0000e+00 -1.0000e+00
       50  1    1    2    0    0 +4.3981692460e-02 +6.9851936139e-03 +1.8999942273e+01 1.8999995118e+01 4.9935713700e-03 0.0000e+00 0.0000e+00
       11  1    1    2    0    0 +1.2324222002e-02 +1.1126279305e-02 +2.5073364874e-01 2.5128331474e-01 5.1099893000e-04 0.0000e+00 -1.0000e+00
<vert_displacement>
56.815065389801497
</vert_displacement>
</event>
<event>
 4   1200 +8.6263000e+09 1.33897300e-02 7.81665300e-03            nan
       50 -1    0    0    0    0 +9.7030771685e-03 +2.1503283108e-02 +1.3381558843e+01 1.3381580569e+01 4.9935713700e-03 0.0000e+00 0.0000e+00
       11 -1    0    0    0    0 +1.2578601487e-19 +2.7875819618e-19 +1.7347207802e-16 5.1100000000e-04 5.1099893000e-04 0.0000e+00 1.0000e+00
       50  1    1    2    0    0 +3.4856800973e-03 +1.0438449218e-02 +1.3228801170e+01 1.3228806690e+01 4.9935713700e-03 0.0000e+00 0.0000e+00
       11  1    1    2    0    0 +6.2173970711e-03 +1.1064833890e-02 +1.5275767270e-01 1.5328487944e-01 5.1099893000e-04 0.0000e+00 1.0000e+00
<vert_displacement>
327.79753484141634
</vert_displacement>
</event>
<event>
 4   1200 +8.6263000e+09 9.40279100e-03 7.81665300e-03            nan
       50 -1    0    0    0    0 +2.0856963922e-03 -4.5676926262e-02 +2.9410072455e+01 2.9410108423e+01 4.9935713700e-03 0.0000e+00 0.0000e+00
       11 -1    0    0    0    0 -1.6435812741e-19 +3.5994568023e-18 -2.3175877629e-15 5.1100000000e-04 5.1099893000e-04 0.0000e+00 1.0000e+00
       50  1    1    2    0    0 +5.4492170745e-03 -5.2800616257e-02 +2.9347817869e+01 2.9347866298e+01 4.9935713700e-03 0.0000e+00 0.0000e+00
       11  1    1    2    0    0 -3.3635206823e-03 +7.1236899952e-03 +6.2254585371e-02 6.2753125422e-02 5.1099893000e-04 0.0000e+00 1.0000e+00
<vert_displacement>
427.74070341164611
</vert_displacement>
</event>
<event>
 4   1200 +8.6263000e+09 1.78456900e-02 7.81665300e-03            nan
       50 -1    0    0    0    0 -4.2239921474e-03 +6.4854554278e-03 +4.9804514452e+00 4.9804599624e+00 4.9935713700e-03 0.0000e+00 0.0000e+00
       11 -1    0    0    0    0 +4.2371770453e-19 -6.5056993261e-19 -4.9959975782e-16 5.1100000000e-04 5.1099893000e-04 0.0000e+00 1.0000e+00
       50  1    1    2    0    0 +7.4996271608e-03 +1.8819040149e-02 +4.6742903175e+00 4.6743368844e+00 4.9935713700e-03 0.0000e+00 0.0000e+00
       11  1    1    2    0    0 -1.1723619308e-02 -1.2333584721e-02 +3.0616112772e-01 3.0663407803e-01 5.1099893000e-04 0.0000e+00 1.0000e+00
<vert_displacement>
377.37674385273698
</vert_displacement>
</event>
<event>
 4   1200 +8.6263000e+09 2.62342800e-02 7.81665300e-03            nan
       50 -1    0    0    0    0 +1.6190676440e-03 +4.9950641104e-03 +4.4500556068e+00 4.4500615065e+00 4.9935713700e-03 0.0000e+00 0.0000e+00
       11 -1    0    0    0    0 +1.0350786661e-19 +3.1933713922e-19 +2.8449445201e-16 5.1100000000e-04 5.1099893000e-04 0.0000e+00 1.0000e+00
       50  1    1    2    0    0 +2.2170278676e-02 -1.1026288133e-02 +3.6599030310e+00 3.6599901957e+00 4.9935713700e-03 0.0000e+00 0.0000e+00
       11  1    1    2    0    0 -2.0551211032e-02 +1.6021352244e-02 +7.9015257576e-01 7.9058231077e-01 5.1099893000e-04 0.0000e+00 1.0000e+00
<vert_displacement>
157.38784302623918
</vert_displacement>
</event>
<event>
 4   1200 +8.6263000e+09 6.34189700e-03 7.81665300e-03            nan
       50 -1    0    0    0    0 -6.8655200585e-06 -6.4205842310e-03 +7.1383234071e+00 7.1383280413e+00 4.9935713700e-03 0.0000e+00 0.0000e+00
       11 -1    0    0    0    0 -1.4014789737e-22 -1.3106529034e-19 +1.4571671304e-16 5.1100000000e-04 5.1099893000e-04 0.0000e+00 1.0000e+00
       50  1    1    2    0    0 +3.8902467715e-03 -6.7178066126e-03 +7.1233355898e+00 7.1233415700e+00 4.9935713700e-03 0.0000e+00 0.0000e+00
       11  1    1    2    0    0 -3.8971122915e-03 +2.9722238166e-04 +1.4987817362e-02 1.5497471231e-02 5.1099893000e-04 0.0000e+00 1.0000e+00
<vert_displacement>
183.33050573916177
</vert_displacement>
</event>
<event>
 4   1200 +8.6263000e+09 1.00358000e-02 7.81665300e-03            nan
       50 -1    0    0    0    0 +5.2494400057e-03 +2.9256463533e-04 +3.3888163233e+00 3.3888240808e+00 4.9935713700e-03 0.0000e+00 0.0000e+00
       11 -1    0    0    0    0 +4.4069541032e-19 +2.4561075443e-20 +2.8449430767e-16 5.1100000000e-04 5.1099893000e-04 0.0000e+00 1.0000e+00
       50  1    1    2    0    0 -1.6489950594e-03 -5.1729962678e-03 +3.3129550335e+00 3.3129632459e+00 4.9935713700e-03 0.0000e+00 0.0000e+00
       11  1    1    2    0    0 +6.8984350651e-03 +5.4655609031e-03 +7.5861289810e-02 7.6371834952e-02 5.1099893000e-04 0.0000e+00 1.0000e+00
<vert_displacement>
141.39795929307772
</vert_displacement>
</event>
<event>
 4   1200 +8.6263000e+09 4.56169600e-02 7.81665300e-03            nan
       50 -1    0    0    0    0 +1.0090882842e-01 +5.6012339696e-02 +4.6995860665e+01 4.6996002645e+01 4.9935713700e-03 0.0000e+00 0.0000e+00
       11 -1    0    0    0    0 -2.9798094260e-19 -1.6540286951e-19 -1.3877745960e-16 5.1100000000e-04 5.1099893000e-04 0.0000e+00 1.0000e+00
       50  1    1    2    0    0 +1.0723891242e-01 +9.7526974382e-02 +4.4889616958e+01 4.4889851273e+01 4.9935713700e-03 0.0000e+00 0.0000e+00
       11  1    1    2    0    0 -6.3300839984e-03 -4.1514634686e-02 +2.1062437072e+00 2.1066623721e+00 5.1099893000e-04 0.0000e+00 1.0000e+00
<vert_displacement>
53.928090826790793
</vert_displacement>
</event>
<event>
 4   1200 +8.6263000e+09 3.47699300e-02 7.81665300e-03            nan
       50 -1    0    0    0    0 +6.5146126866e-03 -1.1227371383e-02 +5.7845645525e+00 5.7845812720e+00 4.9935713700e-03 0.0000e+00 0.0000e+00
       11 -1    0    0    0    0 -5.4702241498e-20 +9.4274580901e-20 -4.8572135035e-17 5.1100000000e-04 5.1099893000e-04 0.0000e+00 1.0000e+00
       50  1    1    2    0    0 -2.7511560622e-02 +3.9786608815e-03 +4.1777920661e+00 4.1778875283e+00 4.9935713700e-03 0.0000e+00 0.0000e+00
       11  1    1    2    0    0 +3.4026173308e-02 -1.5206032264e-02 +1.6067724865e+00 1.6072047437e+00 5.1099893000e-04 0.0000e+00 1.0000e+00
<vert_displacement>
171.97378064984500
</vert_displacement>
</event>
<event>
 4   1200 +8.6263000e+09 2.46331800e-02 7.81665300e-03            nan
       50 -1    0    0    0    0 +1.0618448689e-02 -8.3308378766e-04 +3.5513446283e+00 3.5513641112e+00 4.9935713700e-03 0.0000e+00 0.0000e+00
       11 -1    0    0    0    0 +2.8008530018e-19 -2.1974445569e-20 +9.3674646402e-17 5.1100000000e-04 5.1099893000e-04 0.0000e+00 1.0000e+00
       50  1    1    2    0    0 +3.0613442945e-02 -1.0264418311e-02 +2.8373799042e+00 2.8375680076e+00 4.9935713700e-03 0.0000e+00 0.0000e+00
       11  1    1    2    0    0 -1.9994994256e-02 +9.4313345238e-03 +7.1396472413e-01 7.1430710363e-01 5.1099893000e-04 0.0000e+00 1.0000e+00
<vert_displacement>
218.82672676980937
</vert_displacement>
</event>
<event>
 4   1200 +8.6263000e+09 6.39454200e-03 7.81665300e-03            nan
       50 -1    0    0    0    0 +3.8883582777e-02 -3.2323708344e-03 +1.2450235116e+01 1.2450297256e+01 4.9935713700e-03 0.0000e+00 0.0000e+00
       11 -1    0    0    0    0 +1.0835447205e-19 -9.0074476220e-21 +3.4694299149e-17 5.1100000000e-04 5.1099893000e-04 0.0000e+00 1.0000e+00
       50  1    1    2    0    0 +4.0301250034e-02 +4.8703581437e-04 +1.2434600308e+01 1.2434666629e+01 4.9935713700e-03 0.0000e+00 0.0000e+00
       11  1    1    2    0    0 -1.4176672576e-03 -3.7194066487e-03 +1.5634807652e-02 1.6141626203e-02 5.1099893000e-04 0.0000e+00 1.0000e+00
<vert_displacement>
136.46340326758218
</vert_displacement>
</event>
<event>
 4   1200 +8.6263000e+09 1.08507700e-02 7.81665300e-03            nan
       50 -1    0    0    0    0 -2.2747386953e-02 +4.8640214095e-03 +9.0579564285e+00 9.0579876738e+00 4.9935713700e-03 0.0000e+00 0.0000e+00
       11 -1    0    0    0    0 -3.1366250627e-19 +6.7069731966e-20 +1.2489967841e-16 5.1100000000e-04 5.1099893000e-04 0.0000e+00 1.0000e+00
       50  1    1    2    0    0 -2.7324886902e-02 -3.5331566074e-03 +8.9662064925e+00 8.9662502159e+00 4.9935713700e-03 0.0000e+00 0.0000e+00
       11  1    1    2    0    0 +4.5774999493e-03 +8.3971780169e-03 +9.1749936073e-02 9.2248457948e-02 5.1099893000e-04 0.0000e+00 1.0000e+00
<vert_displacement>
261.44262932675201
</vert_displacement>
</event>
<event>
 4   1200 +8.6263000e+09 3.12467400e-02 7.81665300e-03            nan
       50 -1    0    0    0    0 +2.6515402422e-02 +3.9611175616e-02 +1.5633711901e+01 1.5633785366e+01 4.9935713700e-03 0.0000e+00 0.0000e+00
       11 -1    0    0    0    0 +7.7672678589e-19 +1.1603467536e-18 +4.5796486900e-16 5.1100000000e-04 5.1099893000e-04 0.0000e+00 1.0000e+00
       50  1    1    2    0    0 +9.2348647412e-03 +1.0479198177e-02 +1.4639502196e+01 1.4639509711e+01 4.9935713700e-03 0.0000e+00 0.0000e+00
       11  1    1    2    0    0 +1.7280537681e-02 +2.9131977439e-02 +9.9420970496e-01 9.9478665434e-01 5.1099893000e-04 0.0000e+00 1.0000e+00
<vert_displacement>
355.07122808911942
</vert_displacement>
</event>
<event>
 4   1200 +8.6263000e+09 2.69413000e-02 7.81665300e-03            nan
       50 -1    0    0    0    0 -4.5376493264e-02 -2.2933472874e-02 +1.8091890997e+01 1.8091963126e+01 4.9935713700e-03 0.0000e+00 0.0000e+00
       11 -1    0    0    0    0 +1.1486280970e-18 +5.8052153020e-19 -4.5796518928e-16 5.1100000000e-04 5.1099893000e-04 0.0000e+00 1.0000e+00
       50  1    1    2    0    0 -2.3962570542e-02 -3.9800067100e-02 +1.7377871729e+01 1.7377934544e+01 4.9935713700e-03 0.0000e+00 0.0000e+00
       11  1    1    2    0    0 -2.1413922721e-02 +1.6866594226e-02 +7.1401926796e-01 7.1453958199e-01 5.1099893000e-04 0.0000e+00 1.0000e+00
<vert_displacement>
0.42988480200593865
</vert_displacement>
</event>
<event>
 4   1200 +8.6263000e+09 9.50645200e-03 7.81665300e-03            nan
       50 -1    0    0    0    0 +9.0191369665e-03 +1.3660924610e-02 +7.3479326648e+00 7.3479525957e+00 4.9935713700e-03 0.0000e+00 0.0000e+00
       11 -1    0    0    0    0 +9.9649436136e-19 +1.5093499961e-18 +8.1184857214e-16 5.1100000000e-04 5.1099893000e-04 0.0000e+00 1.0000e+00
       50  1    1    2    0    0 +1.2230617578e-02 +2.0930497236e-02 +7.2833124871e+00 7.2833545426e+00 4.9935713700e-03 0.0000e+00 0.0000e+00
       11  1    1    2    0    0 -3.2114806119e-03 -7.2695726260e-03 +6.4620177767e-02 6.5109053045e-02 5.1099893000e-04 0.0000e+00 1.0000e+00
<vert_displacement>
433.98487973624952
</vert_displacement>
</event>
<event>
 4   1200 +8.6263000e+09 3.10665800e-02 7.81665300e-03            nan
       50 -1    0    0    0    0 -1.0125447323e-02 -2.0453600790e-02 +7.8499920359e+00 7.8500268008e+00 4.9935713700e-03 0.0000e+00 0.0000e+00
       11 -1    0    0    0    0 +6.9811668349e-19 +1.4102092968e-18 -5.4123143708e-16 5.1100000000e-04 5.1099893000e-04 0.0000e+00 1.0000e+00
       50  1    1    2    0    0 +1.9739929249e-02 -6.3469819453e-03 +6.7851328677e+00 6.7851663883e+00 4.9935713700e-03 0.0000e+00 0.0000e+00
       11  1    1    2    0    0 -2.9865376572e-02 -1.4106618844e-02 +1.0648591682e+00 1.0653714125e+00 5.1099893000e-04 0.0000e+00 1.0000e+00
<vert_displacement>
43.195834592189406
</vert_displacement>
</event>
<event>
 4   1200 +8.6263000e+09 1.49884900e-02 7.81665300e-03            nan
       50 -1    0    0    0    0 +2.6350849786e-02 -5.9020372448e-03 +2.5768633634e+01 2.5768648267e+01 4.9935713700e-03 0.0000e+00 0.0000e+00
       11 -1    0    0    0    0 +1.4191334561e-20 -3.1785610640e-21 +1.3877780188e-17 5.1100000000e-04 5.1099893000e-04 0.0000e+00 1.0000e+00
       50  1    1    2    0    0 +1.3523748842e-02 -1.2205956443e-02 +2.5571715081e+01 2.5571722058e+01 4.9935713700e-03 0.0000e+00 0.0000e+00
       11  1    1    2    0    0 +1.2827100944e-02 +6.3039191984e-03 +1.9691855304e-01 1.9743720918e-01 5.1099893000e-04 0.0000e+00 1.0000e+00
<vert_displacement>
165.93276134571977
</vert_displacement>
</event>
<event>
 4   1200 +8.6263000e+09 2.57541700e-02 7.81665300e-03            nan
       50 -1    0    0    0    0 +3.7158359348e-02 +9.9018357264e-03 +1.4877158189e+01 1.4877208727e+01 4.9935713700e-03 0.0000e+00 0.0000e+00
       11 -1    0    0    0    0 +2.4436806978e-18 +6.5118388600e-19 +9.7838077199e-16 5.1100000000e-04 5.1099893000e-04 0.0000e+00 1.0000e+00
       50  1    1    2    0    0 +1.8213612075e-02 +2.7868212931e-02 +1.4223829116e+01 1.4223868954e+01 4.9935713700e-03 0.0000e+00 0.0000e+00
       11  1    1    2    0    0 +1.8944747273e-02 -1.7966377205e-02 +6.5332907306e-01 6.5385077272e-01 5.1099893000e-04 0.0000e+00 1.0000e+00
<vert_displacement>
310.14659302605543
</vert_displacement>
</event>
<event>
 4   1200 +8.6263000e+09 7.57712300e-03 7.81665300e-03            nan
       50 -1    0    0    0    0 +1.6036694845e-02 -5.2685839428e-03 +5.8256007086e+00 5.8256273040e+00 4.9935713700e-03 0.0000e+00 0.0000e+00
       11 -1    0    0    0    0 -7.4495009855e-19 +2.4474071280e-19 -2.7061572624e-16 5.1100000000e-04 5.1099893000e-04 0.0000e+00 1.0000e+00
       50  1    1    2    0    0 +2.0517809659e-02 -1.8337457177e-03 +5.7936346001e+00 5.7936733735e+00 4.9935713700e-03 0.0000e+00 0.0000e+00
       11  1    1    2    0    0 -4.4811148142e-03 -3.4348382251e-03 +3.1966108482e-02 3.2464930541e-02 5.1099893000e-04 0.0000e+00 1.0000e+00
<vert_displacement>
286.48440102985114
</vert_displacement>
</event>
<event>
 4   1200 +8.6263000e+09 9.68678900e-03 7.81665300e-03            nan
       50 -1    0    0    0    0 -2.2415209339e-02 +3.4930340216e-02 +1.5800957520e+01 1.5801012818e+01 4.9935713700e-03 0.0000e+00 0.0000e+00
       11 -1    0    0    0    0 +2.5789886685e-18 -4.0189208247e-18 -1.8179839314e-15 5.1100000000e-04 5.1099893000e-04 0.0000e+00 1.0000e+00
       50  1    1    2    0    0 -1.4064612807e-02 +3.5652724625e-02 +1.5733259781e+01 1.5733307255e+01 4.9935713700e-03 0.0000e+00 0.0000e+00
       11  1    1    2    0    0 -8.3505965318e-03 -7.2238440929e-04 +6.7697739529e-02 6.8216562203e-02 5.1099893000e-04 0.0000e+00 1.0000e+00
<vert_displacement>
201.71607580782990
</vert_displacement>
</event>
<event>
 4   1200 +8.6263000e+09 1.59356900e-02 7.81665300e-03            nan
       50 -1    0    0    0    0 +3.6878005965e-02 -7.5678962640e-03 +2.1704462674e+01 2.1704495897e+01 4.9935713700e-03 0.0000e+00 0.0000e+00
       11 -1    0    0    0    0 -3.3954744991e-18 +6.9680011442e-19 -1.9983984382e-15 5.1100000000e-04 5.1099893000e-04 0.0000e+00 1.0000e+00
       50  1    1    2    0    0 +3.7097992378e-02 +7.6320606313e-03 +2.1478016149e+01 2.1478050124e+01 4.9935713700e-03 0.0000e+00 0.0000e+00
       11  1    1    2    0    0 -2.1998641295e-04 -1.5199956895e-02 +2.2644652541e-01 2.2695677358e-01 5.1099893000e-04 0.0000e+00 1.0000e+00
<vert_displacement>
259.51665934703163
</vert_displacement>
</event>
<event>
 4   1200 +8.6263000e+09 3.35067200e-02 7.81665300e-03            nan
       50 -1    0    0    0    0 -2.8091055084e-03 +4.4556229957e-03 +4.5511931885e+00 4.5511989759e+00 4.9935713700e-03 0.0000e+00 0.0000e+00
       11 -1    0    0    0    0 +7.7091277403e-20 -1.2227723997e-19 -1.2490000662e-16 5.1100000000e-04 5.1099893000e-04 0.0000e+00 1.0000e+00
       50  1    1    2    0    0 -2.2877805673e-02 -2.3227248274e-02 +1.7772242356e+00 1.7775302581e+00 4.9935713700e-03 0.0000e+00 0.0000e+00
       11  1    1    2    0    0 +2.0068700165e-02 +2.7682871270e-02 +2.7739689529e+00 2.7741797179e+00 5.1099893000e-04 0.0000e+00 1.0000e+00
<vert_displacement>
44.559147248027358
</vert_displacement>
</event>
<event>
 4   1200 +8.6263000e+09 3.34450000e-02 7.81665300e-03            nan
       50 -1    0    0    0    0 -1.0355014602e-02 +2.9278817760e-03 +4.5937936071e+00 4.5938089250e+00 4.9935713700e-03 0.0000e+00 0.0000e+00
       11 -1    0    0    0    0 +6.4128657592e-19 -1.8132386588e-19 -2.8449386951e-16 5.1100000000e-04 5.1099893000e-04 0.0000e+00 1.0000e+00
       50  1    1    2    0    0 +2.4022222628e-02 -1.0891666745e-02 +2.8835339160e+00 2.8836588696e+00 4.9935713700e-03 0.0000e+00 0.0000e+00
       11  1    1    2    0    0 -3.4377237230e-02 +1.3819548521e-02 +1.7102596911e+00 1.7106610554e+00 5.1099893000e-04 0.0000e+00 1.0000e+00
<vert_displacement>
448.01072015333563
</vert_displacement>
</event>
<event>
 4   1200 +8.6263000e+09 7.32585000e-03 7.81665300e-03            nan
       50 -1    0    0    0    0 -4.9464681838e-04 +3.2065444131e-03 +1.7301758748e+00 1.7301861230e+00 4.9935713700e-03 0.0000e+00 0.0000e+00
       11 -1    0    0    0    0 -6.7448666616e-20 +4.3723549221e-19 +2.3592197793e-16 5.1100000000e-04 5.1099893000e-04 0.0000e+00 -1.0000e+00
       50  1    1    2    0    0 +2.5544163283e-03 -1.2606739249e-03 +1.7015833217e+00 1.7015930333e+00 4.9935713700e-03 0.0000e+00 0.0000e+00
       11  1    1    2    0    0 -3.0490631466e-03 +4.4672183379e-03 +2.8592553093e-02 2.9104089713e-02 5.1099893000e-04 0.0000e+00 -1.0000e+00
<vert_displacement>
161.77496445660663
</vert_displacement>
</event>
<event>
 4   1200 +8.6263000e+09 9.43496700e-03 7.81665300e-03            nan
       50 -1    0    0    0    0 -1.1351382724e-02 +1.5019901022e-02 +7.4841177729e+00 7.4841431190e+00 4.9935713700e-03 0.0000e+00 0.0000e+00
       11 -1    0    0    0    0 +8.7352455760e-19 -1.1558285642e-18 -5.7592637176e-16 5.1100000000e-04 5.1099893000e-04 0.0000e+00 1.0000e+00
       50  1    1    2    0    0 -1.0639732511e-02 +6.9115332572e-03 +7.4208910931e+00 7.4209036192e+00 4.9935713700e-03 0.0000e+00 0.0000e+00
       11  1    1    2    0    0 -7.1165021280e-04 +8.1083677647e-03 +6.3226679733e-02 6.3750499793e-02 5.1099893000e-04 0.0000e+00 1.0000e+00
<vert_displacement>
493.99579901974158
</vert_displacement>
</event>
<event>
 4   1200 +8.6263000e+09 2.52924600e-02 7.81665300e-03            nan
       50 -1    0    0    0    0 -4.0010681389e-02 -7.6344075624e-02 +2.9754513817e+01 2.9754639078e+01 4.9935713700e-03 0.0000e+00 0.0000e+00
       11 -1    0    0    0    0 +5.7849978735e-19 +1.1038310266e-18 -4.3020961699e-16 5.1100000000e-04 5.1099893000e-04 0.0000e+00 1.0000e+00
       50  1    1    2    0    0 -6.3778579901e-02 -7.1619372831e-02 +2.9140251797e+01 2.9140410031e+01 4.9935713700e-03 0.0000e+00 0.0000e+00
       11  1    1    2    0    0 +2.3767898513e-02 -4.7247027928e-03 +6.1426201996e-01 6.1474004758e-01 5.1099893000e-04 0.0000e+00 1.0000e+00
<vert_displacement>
25.138310390949997
</vert_displacement>
</event>
<event>
 4   1200 +8.6263000e+09 1.56280300e-02 7.81665300e-03            nan
       50 -1    0    0    0    0 +1.2706183144e-02 -3.1678880063e-02 +2.2469735669e+01 2.2469762148e+01 4.9935713700e-03 0.0000e+00 0.0000e+00
       11 -1    0    0    0    0 +1.4125680997e-19 -3.5217952476e-19 +2.4979989234e-16 5.1100000000e-04 5.1099893000e-04 0.0000e+00 1.0000e+00
       50  1    1    2    0    0 +4.4802806533e-05 -3.9252283058e-02 +2.2253056436e+01 2.2253091615e+01 4.9935713700e-03 0.0000e+00 0.0000e+00
       11  1    1    2    0    0 +1.2661380338e-02 +7.5734029946e-03 +2.1667923323e-01 2.1718153286e-01 5.1099893000e-04 0.0000e+00 1.0000e+00
<vert_displacement>
309.53895994885625
</vert_displacement>
</event>
<event>
 4   1200 +8.6263000e+09 2.44051100e-02 7.81665300e-03            nan
       50 -1    0    0    0    0 -1.5070562641e-02 +9.8855233013e-03 +5.9562141697e+00 5.9562435324e+00 4.9935713700e-03 0.0000e+00 0.0000e+00
       11 -1    0    0    0    0 +7.3738909426e-19 -4.8368977636e-19 -2.9143220970e-16 5.1100000000e-04 5.1099893000e-04 0.0000e+00 1.0000e+00
       50  1    1    2    0    0 -3.4372231692e-02 -2.7548538538e-03 +5.3320888225e+00 5.3322026580e+00 4.9935713700e-03 0.0000e+00 0.0000e+00
       11  1    1    2    0    0 +1.9301669051e-02 +1.2640377155e-02 +6.2412534723e-01 6.2455187434e-01 5.1099893000e-04 0.0000e+00 1.0000e+00
<vert_displacement>
209.98831864593464
</vert_displacement>
</event>
<event>
 4   1200 +8.6263000e+09 8.34312400e-03 7.81665300e-03            nan
       50 -1    0    0    0    0 -5.6317785251e-04 +1.7550786480e-03 +1.2575869565e+00 1.2575982214e+00 4.9935713700e-03 0.0000e+00 0.0000e+00
       11 -1    0    0    0    0 +1.5537005810e-20 -4.8419281812e-20 -3.4694432254e-17 5.1100000000e-04 5.1099893000e-04 0.0000e+00 1.0000e+00
       50  1    1    2    0    0 +2.6053892180e-03 -4.2040807349e-03 +1.2121978672e+00 1.2122182425e+00 4.9935713700e-03 0.0000e+00 0.0000e+00
       11  1    1    2    0    0 -3.1685670705e-03 +5.9591593829e-03 +4.5389089302e-02 4.5890978911e-02 5.1099893000e-04 0.0000e+00 1.0000e+00
<vert_displacement>
237.38026784245534
</vert_displacement>
</event>
<event>
 4   1200 +8.6263000e+09 2.11350800e-02 7.81665300e-03            nan
       50 -1    0    0    0    0 -4.6336380065e-03 +5.1229815137e-03 +2.0040314721e+00 2.0040495983e+00 4.9935713700e-03 0.0000e+00 0.0000e+00
       11 -1    0    0    0    0 -4.8131177528e-20 +5.3214155349e-20 +2.0816558052e-17 5.1100000000e-04 5.1099893000e-04 0.0000e+00 1.0000e+00
       50  1    1    2    0    0 -7.7350794024e-03 -1.6423340143e-02 +1.4175883299e+00 1.4177133583e+00 4.9935713700e-03 0.0000e+00 0.0000e+00
       11  1    1    2    0    0 +3.1014413959e-03 +2.1546321657e-02 +5.8644314224e-01 5.8684724002e-01 5.1099893000e-04 0.0000e+00 1.0000e+00
<vert_displacement>
496.67724970993487
</vert_displacement>
</event>
<event>
 4   1200 +8.6263000e+09 1.35541500e-02 7.81665300e-03            nan
       50 -1    0    0    0    0 -4.2797665162e-02 -2.0536881126e-03 +1.7237015647e+01 1.7237069623e+01 4.9935713700e-03 0.0000e+00 0.0000e+00
       11 -1    0    0    0    0 -4.8239737680e-19 -2.3148313220e-20 +1.9428842906e-16 5.1100000000e-04 5.1099893000e-04 0.0000e+00 1.0000e+00
       50  1    1    2    0    0 -4.3898229999e-02 +1.0477367165e-02 +1.7080219793e+01 1.7080280148e+01 4.9935713700e-03 0.0000e+00 0.0000e+00
       11  1    1    2    0    0 +1.1005648373e-03 -1.2531055278e-02 +1.5679585351e-01 1.5730047484e-01 5.1099893000e-04 0.0000e+00 1.0000e+00
<vert_displacement>
21.721322141410127
</vert_displacement>
</event>
<event>
 4   1200 +8.6263000e+09 1.24601200e-02 7.81665300e-03            nan
       50 -1    0    0    0    0 +5.2629612709e-02 +4.1405675383e-03 +1.9066607623e+01 1.9066681363e+01 4.9935713700e-03 0.0000e+00 0.0000e+00
       11 -1    0    0    0    0 -5.1714114365e-18 -4.0685418757e-19 -1.8734941726e-15 5.1100000000e-04 5.1099893000e-04 0.0000e+00 1.0000e+00
       50  1    1    2    0    0 +4.6718844969e-02 +1.4084906268e-02 +1.8938238789e+01 1.8938302310e+01 4.9935713700e-03 0.0000e+00 0.0000e+00
       11  1    1    2    0    0 +5.9107677403e-03 -9.9443387295e-03 +1.2836883411e-01 1.2889005291e-01 5.1099893000e-04 0.0000e+00 1.0000e+00
<vert_displacement>
499.59561998583024
</vert_displacement>
</event>
<event>
 4   1200 +8.6263000e+09 8.62085900e-03 7.81665300e-03            nan
       50 -1    0    0    0    0 +1.0764254013e-03 +6.9005261139e-04 +3.7677132768e+00 3.7677168029e+00 4.9935713700e-03 0.0000e+00 0.0000e+00
       11 -1    0    0    0    0 -2.3789075261e-20 -1.5250210080e-20 -8.3266722052e-17 5.1100000000e-04 5.1099893000e-04 0.0000e+00 1.0000e+00
       50  1    1    2    0    0 -5.2859796447e-03 -2.3323974228e-03 +3.7187481579e+00 3.7187559989e+00 4.9935713700e-03 0.0000e+00 0.0000e+00
       11  1    1    2    0    0 +6.3624050461e-03 +3.0224500342e-03 +4.8965118908e-02 4.9471804008e-02 5.1099893000e-04 0.0000e+00 1.0000e+00
<vert_displacement>
228.31359330240531
</vert_displacement>
</event>
<event>
 4   1200 +8.6263000e+09 1.25983400e-02 7.81665300e-03            nan
       50 -1    0    0    0    0 +3.0877261963e-03 -3.5917489372e-03 +6.0257231215e+00 6.0257270521e+00 4.9935713700e-03 0.0000e+00 0.0000e+00
       11 -1    0    0    0    0 -3.2000902940e-20 +3.7224547067e-20 -6.2450025842e-17 5.1100000000e-04 5.1099893000e-04 0.0000e+00 1.0000e+00
       50  1    1    2    0    0 -6.0063162783e-03 +3.7216053564e-03 +5.8918308582e+00 5.8918372112e+00 4.9935713700e-03 0.0000e+00 0.0000e+00
       11  1    1    2    0    0 +9.0940424747e-03 -7.3133542936e-03 +1.3389226326e-01 1.3440084092e-01 5.1099893000e-04 0.0000e+00 1.0000e+00
<vert_displacement>
128.39738520979898
</vert_displacement>
</event>
<event>
 4   1200 +8.6263000e+09 8.29590200e-03 7.81665300e-03            nan
       50 -1    0    0    0    0 -2.2145924528e-02 -5.3276111857e-02 +2.4785510476e+01 2.4785578130e+01 4.9935713700e-03 0.0000e+00 0.0000e+00
       11 -1    0    0    0    0 +1.6243750470e-18 +3.9077342016e-18 -1.8179852773e-15 5.1100000000e-04 5.1099893000e-04 0.0000e+00 1.0000e+00
       50  1    1    2    0    0 -2.8467037537e-02 -5.1328283561e-02 +2.4742491755e+01 2.4742561875e+01 4.9935713700e-03 0.0000e+00 0.0000e+00
       11  1    1    2    0    0 +6.3211130094e-03 -1.9478282954e-03 +4.3018720450e-02 4.3527255068e-02 5.1099893000e-04 0.0000e+00 1.0000e+00
<vert_displacement>
474.55215874914035
</vert_displacement>
</event>
<event>
 4   1200 +8.6263000e+09 1.63767000e-02 7.81665300e-03            nan
       50 -1    0    0    0    0 +2.0569825192e-03 +9.8423077596e-03 +4.5771938312e+00 4.5772075992e+00 4.9935713700e-03 0.0000e+00 0.0000e+00
       11 -1    0    0    0    0 +1.4032434058e-19 +6.7142784796e-19 +3.1224947226e-16 5.1100000000e-04 5.1099893000e-04 0.0000e+00 1.0000e+00
       50  1    1    2    0    0 -6.5255612847e-04 -6.0787210574e-03 +4.3252311045e+00 4.3252383079e+00 4.9935713700e-03 0.0000e+00 0.0000e+00
       11  1    1    2    0    0 +2.7095386477e-03 +1.5921028817e-02 +2.5196272664e-01 2.5248029130e-01 5.1099893000e-04 0.0000e+00 1.0000e+00
<vert_displacement>
132.62479715187368
</vert_displacement>
</event>
<event>
 4   1200 +8.6263000e+09 8.37619200e-03 7.81665300e-03            nan
       50 -1    0    0    0    0 -1.2687018973e-02 +3.1485059162e-03 +1.5118940546e+01 1.5118947022e+01 4.9935713700e-03 0.0000e+00 0.0000e+00
       11 -1    0    0    0    0 -2.9113761456e-20 +7.2250897064e-21 +3.4694456552e-17 5.1100000000e-04 5.1099893000e-04 0.0000e+00 1.0000e+00
       50  1    1    2    0    0 -1.1512990641e-02 +9.7674269801e-03 +1.5074556834e+01 1.5074565222e+01 4.9935713700e-03 0.0000e+00 0.0000e+00
       11  1    1    2    0    0 -1.1740283318e-03 -6.6189210639e-03 +4.4383712563e-02 4.4892800306e-02 5.1099893000e-04 0.0000e+00 1.0000e+00
<vert_displacement>
135.60586275785596
</vert_displacement>
</event>
<event>
 4   1200 +8.6263000e+09 1.30398900e-02 7.81665300e-03            nan
       50 -1    0    0    0    0 +3.7731482061e-03 -3.3633238762e-02 +1.4387109735e+01 1.4387150409e+01 4.9935713700e-03 0.0000e+00 0.0000e+00
       11 -1    0    0    0    0 -8.5529751768e-20 +7.6239850791e-19 -3.2612711113e-16 5.1100000000e-04 5.1099893000e-04 0.0000e+00 1.0000e+00
       50  1    1    2    0    0 +6.2424196591e-03 -4.5080061495e-02 +1.4243665461e+01 1.4243739042e+01 4.9935713700e-03 0.0000e+00 0.0000e+00
       11  1    1    2    0    0 -2.4692714530e-03 +1.1446822733e-02 +1.4344427387e-01 1.4392236754e-01 5.1099893000e-04 0.0000e+00 1.0000e+00
<vert_displacement>
38.512202367588216
</vert_displacement>
</event>
<event>
 4   1200 +8.6263000e+09 2.09957800e-02 7.81665300e-03            nan
       50 -1    0    0    0    0 +5.4342895710e-03 +1.6519395280e-03 +9.9238564318e+00 9.9238593135e+00 4.9935713700e-03 0.0000e+00 0.0000e+00
       11 -1    0    0    0    0 -1.3679019874e-19 -4.1582093371e-20 -2.4980013963e-16 5.1100000000e-04 5.1099893000e-04 0.0000e+00 1.0000e+00
       50  1    1    2    0    0 +1.3142958338e-02 +2.0364638883e-02 +9.4986293825e+00 9.4986616183e+00 4.9935713700e-03 0.0000e+00 0.0000e+00
       11  1    1    2    0    0 -7.7086687673e-03 -1.8712699355e-02 +4.2522704923e-01 4.2570869525e-01 5.1099893000e-04 0.0000e+00 1.0000e+00
<vert_displacement>
489.01282809683403
</vert_displacement>
</event>
<event>
 4   1200 +8.6263000e+09 3.07766000e-02 7.81665300e-03            nan
       50 -1    0    0    0    0 +3.9811418042e-02 -4.6707498890e-02 +2.5350190371e+01 2.5350265153e+01 4.9935713700e-03 0.0000e+00 0.0000e+00
       11 -1    0    0    0    0 -8.9357137654e-19 +1.0483546211e-18 -5.6898763267e-16 5.1100000000e-04 5.1099893000e-04 0.0000e+00 1.0000e+00
       50  1    1    2    0    0 +5.3298731912e-02 -1.8551909017e-02 +2.4413115410e+01 2.4413181150e+01 4.9935713700e-03 0.0000e+00 0.0000e+00
       11  1    1    2    0    0 -1.3487313869e-02 -2.8155589872e-02 +9.3707496102e-01 9.3759500243e-01 5.1099893000e-04 0.0000e+00 1.0000e+00
<vert_displacement>
496.45289235007505
</vert_displacement>
</event>
<event>
 4   1200 +8.6263000e+09 1.48235500e-02 7.81665300e-03            nan
       50 -1    0    0    0    0 -1.2616209547e-02 -2.2957008367e-02 +1.0216506653e+01 1.0216541456e+01 4.9935713700e-03 0.0000e+00 0.0000e+00
       11 -1    0    0    0    0 -9.9397000842e-19 -1.8086714329e-18 +8.0490904705e-16 5.1100000000e-04 5.1099893000e-04 0.0000e+00 1.0000e+00
       50  1    1    2    0    0 -2.6333273688e-02 -2.2574211725e-02 +1.0022167049e+01 1.0022228312e+01 4.9935713700e-03 0.0000e+00 0.0000e+00
       11  1    1    2    0    0 +1.3717064140e-02 -3.8279664227e-04 +1.9433960405e-01 1.9482414430e-01 5.1099893000e-04 0.0000e+00 1.0000e+00
<vert_displacement>
229.93008376164525
</vert_displacement>
</event>
<event>
 4   1200 +8.6263000e+09 1.57478200e-02 7.81665300e-03            nan
       50 -1    0    0    0    0 -8.2457094220e-03 +4.7543684878e-04 +9.6804456201e+00 9.6804504315e+00 4.9935713700e-03 0.0000e+00 0.0000e+00
       11 -1    0    0    0    0 +3.3689737053e-19 -1.9425062903e-20 -3.9551680856e-16 5.1100000000e-04 5.1099893000e-04 0.0000e+00 1.0000e+00
       50  1    1    2    0    0 -9.3765006694e-03 +1.5341046920e-02 +9.4570057261e+00 9.4570241358e+00 4.9935713700e-03 0.0000e+00 0.0000e+00
       11  1    1    2    0    0 +1.1307912474e-03 -1.4865610071e-02 +2.2343989397e-01 2.2393729566e-01 5.1099893000e-04 0.0000e+00 1.0000e+00
<vert_displacement>
146.98770031862443
</vert_displacement>
</event>
<event>
 4   1200 +8.6263000e+09 2.46822500e-02 7.81665300e-03            nan
       50 -1    0    0    0    0 -2.7882006965e-03 -3.2975448744e-03 +7.2605520900e+00 7.2605550914e+00 4.9935713700e-03 0.0000e+00 0.0000e+00
       11 -1    0    0    0    0 +4.2101894929e-19 +4.9793003782e-19 -1.0963450429e-15 5.1100000000e-04 5.1099893000e-04 0.0000e+00 1.0000e+00
       50  1    1    2    0    0 -1.0841715037e-02 +1.9691102459e-02 +6.6346882095e+00 6.6347281674e+00 4.9935713700e-03 0.0000e+00 0.0000e+00
       11  1    1    2    0    0 +8.0535143409e-03 -2.2988647334e-02 +6.2586388051e-01 6.2633792401e-01 5.1099893000e-04 0.0000e+00 1.0000e+00
<vert_displacement>
122.76008661277521
</vert_displacement>
</event>
<event>
 4   1200 +8.6263000e+09 5.07362500e-02 7.81665300e-03            nan
       50 -1    0    0    0    0 +2.1945848341e-04 -6.0241614755e-03 +1.1017814733e+01 1.1017817514e+01 4.9935713700e-03 0.0000e+00 0.0000e+00
       11 -1    0    0    0    0 -1.4650517168e-20 +4.0215843903e-19 -7.3552264373e-16 5.1100000000e-04 5.1099893000e-04 0.0000e+00 1.0000e+00
       50  1    1    2    0    0 -3.9789623883e-02 -3.4828814308e-02 +7.1918542983e+00 7.1920504339e+00 4.9935713700e-03 0.0000e+00 0.0000e+00
       11  1    1    2    0    0 +4.0009082366e-02 +2.8804652833e-02 +3.8259604352e+00 3.8262780803e+00 5.1099893000e-04 0.0000e+00 1.0000e+00
<vert_displacement>
80.467131856852802
</vert_displacement>
</event>
<event>
 4   1200 +8.6263000e+09 3.31158800e-02 7.81665300e-03            nan
       50 -1    0    0    0    0 +5.8710292752e-03 -1.0344090009e-02 +7.7714533935e+00 7.7714640996e+00 4.9935713700e-03 0.0000e+00 0.0000e+00
       11 -1    0    0    0    0 -4.7178512853e-20 +8.3123207292e-20 -6.2449971994e-17 5.1100000000e-04 5.1099893000e-04 0.0000e+00 1.0000e+00
       50  1    1    2    0    0 +3.3272119072e-02 +7.6984644377e-03 +6.5208567696e+00 6.5209481094e+00 4.9935713700e-03 0.0000e+00 0.0000e+00
       11  1    1    2    0    0 -2.7401089796e-02 -1.8042554447e-02 +1.2505966239e+00 1.2510269903e+00 5.1099893000e-04 0.0000e+00 1.0000e+00
<vert_displacement>
47.430663971785869
</vert_displacement>
</event>
<event>
 4   1200 +8.6263000e+09 9.60225900e-03 7.81665300e-03            nan
       50 -1    0    0    0    0 -3.0887458586e-03 -3.1297931732e-02 +1.3691339056e+01 1.3691376088e+01 4.9935713700e-03 0.0000e+00 0.0000e+00
       11 -1    0    0    0    0 -8.1400804202e-20 -8.2482565076e-19 +3.6082153106e-16 5.1100000000e-04 5.1099893000e-04 0.0000e+00 1.0000e+00
       50  1    1    2    0    0 -1.1211478411e-02 -3.2169572070e-02 +1.3625192905e+01 1.3625236410e+01 4.9935713700e-03 0.0000e+00 0.0000e+00
       11  1    1    2    0    0 +8.1227325521e-03 +8.7164033850e-04 +6.6146150402e-02 6.6650677971e-02 5.1099893000e-04 0.0000e+00 1.0000e+00
<vert_displacement>
58.239554037694674
</vert_displacement>
</event>
<event>
 4   1200 +8.6263000e+09 1.96389000e-02 7.81665300e-03            nan
       50 -1    0    0    0    0 -1.1672190709e-02 -1.6579459495e-02 +1.4542294352e+01 1.4542309344e+01 4.9935713700e-03 0.0000e+00 0.0000e+00
       11 -1    0    0    0    0 +5.5694110073e-21 +7.9109249076e-21 -6.9388871592e-18 5.1100000000e-04 5.1099893000e-04 0.0000e+00 1.0000e+00
       50  1    1    2    0    0 +7.3610184838e-03 -1.9243131365e-02 +1.4180281268e+01 1.4180297115e+01 4.9935713700e-03 0.0000e+00 0.0000e+00
       11  1    1    2    0    0 -1.9033209193e-02 +2.6636718694e-03 +3.6201308318e-01 3.6252322920e-01 5.1099893000e-04 0.0000e+00 1.0000e+00
<vert_displacement>
72.295534847242791
</vert_displacement>
</event>
<event>
 4   1200 +8.6263000e+09 2.68082800e-02 7.81665300e-03            nan
       50 -1    0    0    0    0 +1.4038281738e-02 -1.5897908541e-03 +4.0960891009e+00 4.0961165094e+00 4.9935713700e-03 0.0000e+00 0.0000e+00
       11 -1    0    0    0    0 +0.0000000000e+00 +0.0000000000e+00 +0.0000000000e+00 5.1100000000e-04 5.1099893000e-04 0.0000e+00 1.0000e+00
       50  1    1    2    0    0 +3.2038996205e-02 +1.4706474595e-02 +3.2351191395e+00 3.2353150635e+00 4.9935713700e-03 0.0000e+00 0.0000e+00
       11  1    1    2    0    0 -1.8000714467e-02 -1.6296265449e-02 +8.6096996135e-01 8.6131244590e-01 5.1099893000e-04 0.0000e+00 1.0000e+00
<vert_displacement>
456.21720124898314
</vert_displacement>
</event>
<event>
 4   1200 +8.6263000e+09 1.51600300e-02 7.81665300e-03            nan
       50 -1    0    0    0    0 +5.6603383988e-03 +3.4458751084e-02 +1.4401813409e+01 1.4401856612e+01 4.9935713700e-03 0.0000e+00 0.0000e+00
       11 -1    0    0    0    0 +2.4544641658e-20 +1.4942175498e-19 +6.2449861554e-17 5.1100000000e-04 5.1099893000e-04 0.0000e+00 1.0000e+00
       50  1    1    2    0    0 -7.4398740384e-03 +3.9918832055e-02 +1.4198441214e+01 1.4198500157e+01 4.9935713700e-03 0.0000e+00 0.0000e+00
       11  1    1    2    0    0 +1.3100212437e-02 -5.4600809713e-03 +2.0337219510e-01 2.0386745427e-01 5.1099893000e-04 0.0000e+00 1.0000e+00
<vert_displacement>
132.59466227648969
</vert_displacement>
</event>
<event>
 4   1200 +8.6263000e+09 7.94236100e-03 7.81665300e-03            nan
       50 -1    0    0    0    0 -3.4837401037e-02 -2.6380635644e-02 +1.1513542763e+01 1.1513626773e+01 4.9935713700e-03 0.0000e+00 0.0000e+00
       11 -1    0    0    0    0 -7.7682932717e-19 -5.8825431369e-19 +2.5673722527e-16 5.1100000000e-04 5.1099893000e-04 0.0000e+00 1.0000e+00
       50  1    1    2    0    0 -3.4573573187e-02 -2.0120493426e-02 +1.1476109716e+01 1.1476180520e+01 4.9935713700e-03 0.0000e+00 0.0000e+00
       11  1    1    2    0    0 -2.6382784947e-04 -6.2601422179e-03 +3.7433046648e-02 3.7957253417e-02 5.1099893000e-04 0.0000e+00 1.0000e+00
<vert_displacement>
70.189564323920649
</vert_displacement>
</event>
<event>
 4   1200 +8.6263000e+09 2.48917200e-02 7.81665300e-03            nan
       50 -1    0    0    0    0 -4.6229303536e-03 -6.8238681117e-03 +2.7814679954e+00 2.7814846902e+00 4.9935713700e-03 0.0000e+00 0.0000e+00
       11 -1    0    0    0    0 -2.9985063426e-19 -4.4260696677e-19 +1.8041044939e-16 5.1100000000e-04 5.1099893000e-04 0.0000e+00 1.0000e+00
       50  1    1    2    0    0 -2.6601948869e-02 +2.2013178082e-03 +1.9469289059e+00 1.9471182835e+00 4.9935713700e-03 0.0000e+00 0.0000e+00
       11  1    1    2    0    0 +2.1979018515e-02 -9.0251859199e-03 +8.3453908949e-01 8.3487740671e-01 5.1099893000e-04 0.0000e+00 1.0000e+00
<vert_displacement>
1.1819290901008268
</vert_displacement>
</event>
<event>
 4   1200 +8.6263000e+09 1.08243000e-02 7.81665300e-03            nan
       50 -1    0    0    0    0 +3.5355393939e-03 +2.5582993342e-03 +1.4829456848e+00 1.4829605136e+00 4.9935713700e-03 0.0000e+00 0.0000e+00
       11 -1    0    0    0    0 -1.6543172666e-20 -1.1970560331e-20 -6.9388638579e-18 5.1100000000e-04 5.1099893000e-04 0.0000e+00 1.0000e+00
       50  1    1    2    0    0 +1.0247103601e-02 +9.0275179069e-03 +1.3862364314e+00 1.3863126915e+00 4.9935713700e-03 0.0000e+00 0.0000e+00
       11  1    1    2    0    0 -6.7115642074e-03 -6.4692185727e-03 +9.6709253442e-02 9.7158822061e-02 5.1099893000e-04 0.0000e+00 1.0000e+00
<vert_displacement>
496.90923683828254
</vert_displacement>
</event>
<event>
 4   1200 +8.6263000e+09 2.52700000e-02 7.81665300e-03            nan
       50 -1    0    0    0    0 -1.2410717544e-02 +1.6803923836e-02 +8.2597613238e+00 8.2597892503e+00 4.9935713700e-03 0.0000e+00 0.0000e+00
       11 -1    0    0    0    0 -5.0044861208e-19 +6.7759985120e-19 +3.3306584215e-16 5.1100000000e-04 5.1099893000e-04 0.0000e+00 1.0000e+00
       50  1    1    2    0    0 -2.9685110194e-02 -1.2685085561e-03 +7.6076723280e+00 7.6077319880e+00 4.9935713700e-03 0.0000e+00 0.0000e+00
       11  1    1    2    0    0 +1.7274392649e-02 +1.8072432392e-02 +6.5208899576e-01 6.5256826231e-01 5.1099893000e-04 0.0000e+00 1.0000e+00
<vert_displacement>
315.90878671808179
</vert_displacement>
</event>
<event>
 4   1200 +8.6263000e+09 3.41521800e-02 7.81665300e-03            nan
       50 -1    0    0    0    0 +6.1610175470e-03 +1.7993163824e-03 +1.2537001837e+01 1.2537004474e+01 4.9935713700e-03 0.0000e+00 0.0000e+00
       11 -1    0    0    0    0 +8.0474993340e-19 +2.3502606962e-19 +1.6375787467e-15 5.1100000000e-04 5.1099893000e-04 0.0000e+00 1.0000e+00
       50  1    1    2    0    0 +3.7688791510e-02 +1.2044800018e-02 +1.1297245053e+01 1.1297315444e+01 4.9935713700e-03 0.0000e+00 0.0000e+00
       11  1    1    2    0    0 -3.1527773963e-02 -1.0245483636e-02 +1.2397567840e+00 1.2402000303e+00 5.1099893000e-04 0.0000e+00 1.0000e+00
<vert_displacement>
324.90832891204172
</vert_displacement>
</event>
<event>
 4   1200 +8.6263000e+09 1.19111800e-02 7.81665300e-03            nan
       50 -1    0    0    0    0 +1.8868702108e-03 -1.5368745714e-02 +6.2945578639e+00 6.2945788895e+00 4.9935713700e-03 0.0000e+00 0.0000e+00
       11 -1    0    0    0    0 -8.5280470493e-20 +6.9461792223e-19 -2.8449378929e-16 5.1100000000e-04 5.1099893000e-04 0.0000e+00 1.0000e+00
       50  1    1    2    0    0 -6.5032977644e-03 -2.1949237697e-02 +6.1779431855e+00 6.1779876174e+00 4.9935713700e-03 0.0000e+00 0.0000e+00
       11  1    1    2    0    0 +8.3901679752e-03 +6.5804919829e-03 +1.1661467847e-01 1.1710227217e-01 5.1099893000e-04 0.0000e+00 1.0000e+00
<vert_displacement>
59.292570338297814
</vert_displacement>
</event>
<event>
 4   1200 +8.6263000e+09 3.78578000e-02 7.81665300e-03            nan
       50 -1    0    0    0    0 +4.6435015429e-02 +3.0041863170e-02 +4.2539459943e+01 4.2539496187e+01 4.9935713700e-03 0.0000e+00 0.0000e+00
       11 -1    0    0    0    0 -5.1202385870e-18 -3.3126188418e-18 -4.6906883148e-15 5.1100000000e-04 5.1099893000e-04 0.0000e+00 1.0000e+00
       50  1    1    2    0    0 +4.8280117402e-02 -8.3375933544e-03 +4.1113689471e+01 4.1113718967e+01 4.9935713700e-03 0.0000e+00 0.0000e+00
       11  1    1    2    0    0 -1.8451019731e-03 +3.8379456525e-02 +1.4257704722e+00 1.4262882204e+00 5.1099893000e-04 0.0000e+00 1.0000e+00
<vert_displacement>
307.55265717448918
</vert_displacement>
</event>
<event>
 4   1200 +8.6263000e+09 2.01834600e-02 7.81665300e-03            nan
       50 -1    0    0    0    0 -2.0649134700e-02 +2.9170757953e-03 +9.7702076658e+00 9.7702311981e+00 4.9935713700e-03 0.0000e+00 0.0000e+00
       11 -1    0    0    0    0 -3.2263390245e-19 +4.5578062290e-20 +1.5265531814e-16 5.1100000000e-04 5.1099893000e-04 0.0000e+00 1.0000e+00
       50  1    1    2    0    0 -2.6646628975e-02 +2.1128395927e-02 +9.3803740630e+00 9.3804370340e+00 4.9935713700e-03 0.0000e+00 0.0000e+00
       11  1    1    2    0    0 +5.9974942748e-03 -1.8211320132e-02 +3.8983360279e-01 3.9030516408e-01 5.1099893000e-04 0.0000e+00 1.0000e+00
<vert_displacement>
148.89151992290422
</vert_displacement>
</event>
<event>
 4   1200 +8.6263000e+09 1.12430800e-02 7.81665300e-03            nan
       50 -1    0    0    0    0 +2.5897353132e-03 -5.4439566265e-05 +5.3751497845e+00 5.3751527282e+00 4.9935713700e-03 0.0000e+00 0.0000e+00
       11 -1    0    0    0    0 -2.6745147147e-19 +5.6221738298e-21 -5.5511144786e-16 5.1100000000e-04 5.1099893000e-04 0.0000e+00 1.0000e+00
       50  1    1    2    0    0 +4.5270373262e-03 +9.8221388193e-03 +5.2739384737e+00 5.2739519270e+00 4.9935713700e-03 0.0000e+00 0.0000e+00
       11  1    1    2    0    0 -1.9373020131e-03 -9.8765783856e-03 +1.0121131080e-01 1.0171180115e-01 5.1099893000e-04 0.0000e+00 1.0000e+00
<vert_displacement>
258.00752655413964
</vert_displacement>
</event>
<event>
 4   1200 +8.6263000e+09 6.93841300e-03 7.81665300e-03            nan
       50 -1    0    0    0    0 -3.2296075346e-02 -5.8771891989e-03 +1.9811312392e+01 1.9811340217e+01 4.9935713700e-03 0.0000e+00 0.0000e+00
       11 -1    0    0    0    0 -3.6423529397e-18 -6.6282968214e-19 +2.2343207699e-15 5.1100000000e-04 5.1099893000e-04 0.0000e+00 1.0000e+00
       50  1    1    2    0    0 -3.4204186783e-02 -1.0277498525e-02 +1.9788574955e+01 1.9788607814e+01 4.9935713700e-03 0.0000e+00 0.0000e+00
       11  1    1    2    0    0 +1.9081114377e-03 +4.4003093265e-03 +2.2737437454e-02 2.3243403221e-02 5.1099893000e-04 0.0000e+00 1.0000e+00
<vert_displacement>
449.36226899764142
</vert_displacement>
</event>
<event>
 4   1200 +8.6263000e+09 7.77890600e-03 7.81665300e-03            nan
       50 -1    0    0    0    0 -5.6835423790e-02 +1.5136995474e-02 +2.2398019163e+01 2.2398096945e+01 4.9935713700e-03 0.0000e+00 0.0000e+00
       11 -1    0    0    0    0 -4.0849451117e-18 +1.0879446575e-18 +1.6098178353e-15 5.1100000000e-04 5.1099893000e-04 0.0000e+00 1.0000e+00
       50  1    1    2    0    0 -5.3571234532e-02 +1.0064640701e-02 +2.2363165817e+01 2.2363232805e+01 4.9935713700e-03 0.0000e+00 0.0000e+00
       11  1    1    2    0    0 -3.2641892580e-03 +5.0723547731e-03 +3.4853345555e-02 3.5375140010e-02 5.1099893000e-04 0.0000e+00 1.0000e+00
<vert_displacement>
275.48926685889870
</vert_displacement>
</event>
<event>
 4   1200 +8.6263000e+09 1.79082000e-02 7.81665300e-03            nan
       50 -1    0    0    0    0 +3.4609470653e-04 +1.4317973433e-02 +7.8141454119e+00 7.8141601326e+00 4.9935713700e-03 0.0000e+00 0.0000e+00
       11 -1    0    0    0    0 -3.3191489435e-20 -1.3731353152e-18 -7.4939928288e-16 5.1100000000e-04 5.1099893000e-04 0.0000e+00 1.0000e+00
       50  1    1    2    0    0 +1.0051283952e-02 -4.2229305025e-04 +7.5131169496e+00 7.5131253444e+00 4.9935713700e-03 0.0000e+00 0.0000e+00
       11  1    1    2    0    0 -9.7051892450e-03 +1.4740266484e-02 +3.0102846225e-01 3.0154578817e-01 5.1099893000e-04 0.0000e+00 1.0000e+00
<vert_displacement>
334.70350098490201
</vert_displacement>
</event>
<event>
 4   1200 +8.6263000e+09 1.12657400e-02 7.81665300e-03            nan
       50 -1    0    0    0    0 -9.3567496163e-03 -7.3714901032e-04 +5.2607041841e+00 5.2607149267e+00 4.9935713700e-03 0.0000e+00 0.0000e+00
       11 -1    0    0    0    0 +1.1971330387e-18 +9.4313246680e-20 -6.7307163745e-16 5.1100000000e-04 5.1099893000e-04 0.0000e+00 1.0000e+00
       50  1    1    2    0    0 -3.3429935190e-03 +7.5209056324e-03 +5.1589423515e+00 5.1589513335e+00 4.9935713700e-03 0.0000e+00 0.0000e+00
       11  1    1    2    0    0 -6.0137560973e-03 -8.2580546427e-03 +1.0176183257e-01 1.0227459321e-01 5.1099893000e-04 0.0000e+00 1.0000e+00
<vert_displacement>
145.40264800146772
</vert_displacement>
</event>
<event>
 4   1200 +8.6263000e+09 3.89362400e-02 7.81665300e-03            nan
       50 -1    0    0    0    0 +2.5001080020e-02 +2.6529779466e-02 +1.5681508795e+01 1.5681551961e+01 4.9935713700e-03 0.0000e+00 0.0000e+00
       11 -1    0    0    0    0 +1.2832698391e-18 +1.3617358050e-18 +8.0490951801e-16 5.1100000000e-04 5.1099893000e-04 0.0000e+00 1.0000e+00
       50  1    1    2    0    0 +4.0477643321e-02 -1.0349464185e-02 +1.4053141091e+01 1.4053204084e+01 4.9935713700e-03 0.0000e+00 0.0000e+00
       11  1    1    2    0    0 -1.5476563302e-02 +3.6879243650e-02 +1.6283677036e+00 1.6288588772e+00 5.1099893000e-04 0.0000e+00 1.0000e+00
<vert_displacement>
240.22764801137455
</vert_displacement>
</event>
<event>
 4   1200 +8.6263000e+09 7.53471200e-03 7.81665300e-03            nan
       50 -1    0    0    0    0 -4.5306951313e-02 -7.8871595360e-02 +3.1426847594e+01 3.1426979621e+01 4.9935713700e-03 0.0000e+00 0.0000e+00
       11 -1    0    0    0    0 -1.8806600435e-18 -3.2739050778e-18 +1.3045065901e-15 5.1100000000e-04 5.1099893000e-04 0.0000e+00 1.0000e+00
       50  1    1    2    0    0 -4.8637291944e-02 -7.4271891913e-02 +3.1395671924e+01 3.1395797846e+01 4.9935713700e-03 0.0000e+00 0.0000e+00
       11  1    1    2    0    0 +3.3303406312e-03 -4.5997034475e-03 +3.1175669909e-02 3.1692774487e-02 5.1099893000e-04 0.0000e+00 1.0000e+00
<vert_displacement>
312.65571537169569
</vert_displacement>
</event>
<event>
 4   1200 +8.6263000e+09 7.06494300e-03 7.81665300e-03            nan
       50 -1    0    0    0    0 +2.5911872152e-02 -5.2901925899e-03 +8.9606745603e+00 8.9607149784e+00 4.9935713700e-03 0.0000e+00 0.0000e+00
       11 -1    0    0    0    0 +2.2874483395e-18 -4.6700763976e-19 +7.9103045985e-16 5.1100000000e-04 5.1099893000e-04 0.0000e+00 1.0000e+00
       50  1    1    2    0    0 +2.9379272178e-02 -8.8053334272e-03 +8.9361537521e+00 8.9362077802e+00 4.9935713700e-03 0.0000e+00 0.0000e+00
       11  1    1    2    0    0 -3.4674000255e-03 +3.5151408373e-03 +2.4520808292e-02 2.5018198121e-02 5.1099893000e-04 0.0000e+00 1.0000e+00
<vert_displacement>
194.08087023865491
</vert_displacement>
</event>
<event>
 4   1200 +8.6263000e+09 9.14639600e-03 7.81665300e-03            nan
       50 -1    0    0    0    0 -5.9635330808e-02 +6.0297656486e-02 +2.3309786519e+01 2.3309941327e+01 4.9935713700e-03 0.0000e+00 0.0000e+00
       11 -1    0    0    0    0 -6.5683219757e-18 +6.6412714882e-18 +2.5673737526e-15 5.1100000000e-04 5.1099893000e-04 0.0000e+00 1.0000e+00
       50  1    1    2    0    0 -5.8269196240e-02 +6.7714046754e-02 +2.3252169954e+01 2.3252342097e+01 4.9935713700e-03 0.0000e+00 0.0000e+00
       11  1    1    2    0    0 -1.3661345672e-03 -7.4163902678e-03 +5.7616564748e-02 5.8110229921e-02 5.1099893000e-04 0.0000e+00 1.0000e+00
<vert_displacement>
434.13729700482043
</vert_displacement>
</event>
<event>
 4   1200 +8.6263000e+09 6.62229100e-03 7.81665300e-03            nan
       50 -1    0    0    0    0 +4.9620497901e-02 +3.1874247487e-03 +1.6631599158e+01 1.6631674234e+01 4.9935713700e-03 0.0000e+00 0.0000e+00
       11 -1    0    0    0    0 -7.8668163411e-19 -5.0533320221e-20 -2.6367678997e-16 5.1100000000e-04 5.1099893000e-04 0.0000e+00 1.0000e+00
       50  1    1    2    0    0 +5.0389708115e-02 +7.4546073183e-03 +1.6613062982e+01 1.6613141824e+01 4.9935713700e-03 0.0000e+00 0.0000e+00
       11  1    1    2    0    0 -7.6921021424e-04 -4.2671825696e-03 +1.8536176116e-02 1.9043410313e-02 5.1099893000e-04 0.0000e+00 1.0000e+00
<vert_displacement>
81.571921172065373
</vert_displacement>
</event>
<event>
 4   1200 +8.6263000e+09 1.61498300e-02 7.81665300e-03            nan
       50 -1    0    0    0    0 +2.8123976567e-02 -3.3642606635e-02 +1.6930515823e+01 1.6930573344e+01 4.9935713700e-03 0.0000e+00 0.0000e+00
       11 -1    0    0    0    0 +4.9563707298e-18 -5.9289350637e-18 +2.9837143714e-15 5.1100000000e-04 5.1099893000e-04 0.0000e+00 1.0000e+00
       50  1    1    2    0    0 +3.5813504081e-02 -4.6239700289e-02 +1.6696426628e+01 1.6696529813e+01 4.9935713700e-03 0.0000e+00 0.0000e+00
       11  1    1    2    0    0 -7.6895275140e-03 +1.2597093654e-02 +2.3408919512e-01 2.3455453096e-01 5.1099893000e-04 0.0000e+00 1.0000e+00
<vert_displacement>
255.64914258721669
</vert_displacement>
</event>
<event>
 4   1200 +8.6263000e+09 1.35298500e-02 7.81665300e-03            nan
       50 -1    0    0    0    0 -1.1741456345e-02 +1.0303125372e-02 +4.5217354125e+00 4.5217651523e+00 4.9935713700e-03 0.0000e+00 0.0000e+00
       11 -1    0    0    0    0 -3.6035825299e-20 +3.1621428809e-20 +1.3877704996e-17 5.1100000000e-04 5.1099893000e-04 0.0000e+00 1.0000e+00
       50  1    1    2    0    0 -7.2124114874e-04 +1.6696616953e-02 +4.3612891122e+00 4.3613239908e+00 4.9935713700e-03 0.0000e+00 0.0000e+00
       11  1    1    2    0    0 -1.1020215196e-02 -6.3934915813e-03 +1.6044630036e-01 1.6095216152e-01 5.1099893000e-04 0.0000e+00 1.0000e+00
<vert_displacement>
97.961973092243952
</vert_displacement>
</event>
<event>
 4   1200 +8.6263000e+09 1.28311900e-02 7.81665300e-03            nan
       50 -1    0    0    0    0 -4.3423299088e-02 +1.1758932352e-01 +4.9142185620e+01 4.9142345745e+01 4.9935713700e-03 0.0000e+00 0.0000e+00
       11 -1    0    0    0    0 -1.5451040219e-18 +4.1841071618e-18 +1.7485955752e-15 5.1100000000e-04 5.1099893000e-04 0.0000e+00 1.0000e+00
       50  1    1    2    0    0 -3.4531832343e-02 +1.0933767318e-01 +4.9005132463e+01 4.9005266858e+01 4.9935713700e-03 0.0000e+00 0.0000e+00
       11  1    1    2    0    0 -8.8914667450e-03 +8.2516503429e-03 +1.3705315695e-01 1.3758988649e-01 5.1099893000e-04 0.0000e+00 1.0000e+00
<vert_displacement>
57.343259739489461
</vert_displacement>
</event>
<event>
 4   1200 +8.6263000e+09 6.54434700e-03 7.81665300e-03            nan
       50 -1    0    0    0    0 +1.8245590142e-02 +1.8834390841e-02 +9.0239247147e+00 9.0239641970e+00 4.9935713700e-03 0.0000e+00 0.0000e+00
       11 -1    0    0    0    0 -6.0328054563e-19 -6.2274892151e-19 -2.9837117809e-16 5.1100000000e-04 5.1099893000e-04 0.0000e+00 1.0000e+00
       50  1    1    2    0    0 +2.2091988711e-02 +2.0478162754e-02 +9.0063706825e+00 9.0064224428e+00 4.9935713700e-03 0.0000e+00 0.0000e+00
       11  1    1    2    0    0 -3.8463985690e-03 -1.6437719134e-03 +1.7554032162e-02 1.8052754170e-02 5.1099893000e-04 0.0000e+00 1.0000e+00
<vert_displacement>
285.10079952672925
</vert_displacement>
</event>
<event>
 4   1200 +8.6263000e+09 8.25937600e-03 7.81665300e-03            nan
       50 -1    0    0    0    0 -1.8549584022e-02 -1.6500527393e-02 +9.3469251538e+00 9.3469594586e+00 4.9935713700e-03 0.0000e+00 0.0000e+00
       11 -1    0    0    0    0 -1.5147704007e-19 -1.3474431804e-19 +7.6327563700e-17 5.1100000000e-04 5.1099893000e-04 0.0000e+00 1.0000e+00
       50  1    1    2    0    0 -1.6576765827e-02 -2.2727441455e-02 +9.3043716036e+00 9.3044154679e+00 4.9935713700e-03 0.0000e+00 0.0000e+00
       11  1    1    2    0    0 -1.9728181950e-03 +6.2269140628e-03 +4.2553550207e-02 4.3054990716e-02 5.1099893000e-04 0.0000e+00 1.0000e+00
<vert_displacement>
478.29448019483078
</vert_displacement>
</event>
<event>
 4   1200 +8.6263000e+09 1.67686800e-02 7.81665300e-03            nan
       50 -1    0    0    0    0 -1.3129757986e-02 -1.1901651900e-02 +5.2162758912e+00 5.2163083832e+00 4.9935713700e-03 0.0000e+00 0.0000e+00
       11 -1    0    0    0    0 -2.0958739254e-19 -1.8998340955e-19 +8.3266246338e-17 5.1100000000e-04 5.1099893000e-04 0.0000e+00 1.0000e+00
       50  1    1    2    0    0 -7.2938644123e-03 +3.8508438343e-03 +4.9521196825e+00 4.9521290689e+00 4.9935713700e-03 0.0000e+00 0.0000e+00
       11  1    1    2    0    0 -5.8358935736e-03 -1.5752495735e-02 +2.6415620871e-01 2.6469031432e-01 5.1099893000e-04 0.0000e+00 1.0000e+00
<vert_displacement>
125.10264587476465
</vert_displacement>
</event>
<event>
 4   1200 +8.6263000e+09 4.39467800e-02 7.81665300e-03            nan
       50 -1    0    0    0    0 -1.0050379843e-02 +1.2566478991e-02 +8.3508533811e+00 8.3508703771e+00 4.9935713700e-03 0.0000e+00 0.0000e+00
       11 -1    0    0    0    0 +7.1819025709e-19 -8.9798822706e-19 -5.9674376791e-16 5.1100000000e-04 5.1099893000e-04 0.0000e+00 1.0000e+00
       50  1    1    2    0    0 -2.1365071614e-02 -3.2788826081e-02 +5.5293598133e+00 5.5295005610e+00 4.9935713700e-03 0.0000e+00 0.0000e+00
       11  1    1    2    0    0 +1.1314691770e-02 +4.5355305071e-02 +2.8214935678e+00 2.8218808161e+00 5.1099893000e-04 0.0000e+00 1.0000e+00
<vert_displacement>
427.74750725400605
</vert_displacement>
</event>
<event>
 4   1200 +8.6263000e+09 8.34630800e-03 7.81665300e-03            nan
       50 -1    0    0    0    0 -2.3722567818e-02 +1.8526172835e-02 +1.8782364391e+01 1.8782389173e+01 4.9935713700e-03 0.0000e+00 0.0000e+00
       11 -1    0    0    0    0 +1.7527949775e-19 -1.3688477127e-19 -1.3877769988e-16 5.1100000000e-04 5.1099893000e-04 0.0000e+00 1.0000e+00
       50  1    1    2    0    0 -1.7207833098e-02 +2.0215563028e-02 +1.8738504796e+01 1.8738524267e+01 4.9935713700e-03 0.0000e+00 0.0000e+00
       11  1    1    2    0    0 -6.5147347198e-03 -1.6893901929e-03 +4.3859595187e-02 4.4375905822e-02 5.1099893000e-04 0.0000e+00 1.0000e+00
<vert_displacement>
74.303267938950214
</vert_displacement>
</event>
<event>
 4   1200 +8.6263000e+09 6.10294400e-03 7.81665300e-03            nan
       50 -1    0    0    0    0 +4.5133386435e-03 -4.5937859380e-03 +3.8424445254e+00 3.8424531668e+00 4.9935713700e-03 0.0000e+00 0.0000e+00
       11 -1    0    0    0    0 +2.2821174037e-19 -2.3227946463e-19 +1.9428875643e-16 5.1100000000e-04 5.1099893000e-04 0.0000e+00 1.0000e+00
       50  1    1    2    0    0 +7.5161783163e-03 -2.7883402320e-03 +3.8303581017e+00 3.8303697460e+00 4.9935713700e-03 0.0000e+00 0.0000e+00
       11  1    1    2    0    0 -3.0028396728e-03 -1.8054457061e-03 +1.2086423666e-02 1.2594420878e-02 5.1099893000e-04 0.0000e+00 1.0000e+00
<vert_displacement>
79.748668024513591
</vert_displacement>
</event>
<event>
 4   1200 +8.6263000e+09 9.08165600e-03 7.81665300e-03            nan
       50 -1    0    0    0    0 +2.7131810135e-02 -3.1771485453e-02 +1.7386722542e+01 1.7386773457e+01 4.9935713700e-03 0.0000e+00 0.0000e+00
       11 -1    0    0    0    0 +5.1541492642e-18 -6.0355345831e-18 +3.3029039623e-15 5.1100000000e-04 5.1099893000e-04 0.0000e+00 1.0000e+00
       50  1    1    2    0    0 +1.9519194804e-02 -3.0707573180e-02 +1.7330248698e+01 1.7330287616e+01 4.9935713700e-03 0.0000e+00 0.0000e+00
       11  1    1    2    0    0 +7.6126153305e-03 -1.0639122732e-03 +5.6473843845e-02 5.6996841842e-02 5.1099893000e-04 0.0000e+00 1.0000e+00
<vert_displacement>
117.17633460820711
</vert_displacement>
</event>
<event>
 4   1200 +8.6263000e+09 1.86962100e-02 7.81665300e-03            nan
       50 -1    0    0    0    0 +9.4685028398e-03 -2.3131246703e-02 +9.5331875682e+00 9.5332216408e+00 4.9935713700e-03 0.0000e+00 0.0000e+00
       11 -1    0    0    0    0 +2.3432080321e-19 -5.7243815610e-19 +2.3592158189e-16 5.1100000000e-04 5.1099893000e-04 0.0000e+00 1.0000e+00
       50  1    1    2    0    0 -4.3082913975e-03 -3.4320794233e-02 +9.2041466515e+00 9.2042130025e+00 4.9935713700e-03 0.0000e+00 0.0000e+00
       11  1    1    2    0    0 +1.3776794237e-02 +1.1189547530e-02 +3.2904091672e-01 3.2951963831e-01 5.1099893000e-04 0.0000e+00 1.0000e+00
<vert_displacement>
65.619373841769956
</vert_displacement>
</event>
<event>
 4   1200 +8.6263000e+09 1.74951600e-02 7.81665300e-03            nan
       50 -1    0    0    0    0 +5.4081538672e-02 +2.0820848166e-02 +1.7900983214e+01 1.7901077713e+01 4.9935713700e-03 0.0000e+00 0.0000e+00
       11 -1    0    0    0    0 -2.0124790051e-18 -7.7478416537e-19 -6.6613032420e-16 5.1100000000e-04 5.1099893000e-04 0.0000e+00 1.0000e+00
       50  1    1    2    0    0 +5.6991093907e-02 +3.6837533208e-02 +1.7621484721e+01 1.7621616092e+01 4.9935713700e-03 0.0000e+00 0.0000e+00
       11  1    1    2    0    0 -2.9095552343e-03 -1.6016685041e-02 +2.7949849310e-01 2.7997262094e-01 5.1099893000e-04 0.0000e+00 1.0000e+00
<vert_displacement>
479.34535985348003
</vert_displacement>
</event>
<event>
 4   1200 +8.6263000e+09 1.12172000e-02 7.81665300e-03            nan
       50 -1    0    0    0    0 +2.1115658636e-03 -6.1463706394e-03 +6.3877026037e+00 6.3877078616e+00 4.9935713700e-03 0.0000e+00 0.0000e+00
       11 -1    0    0    0    0 +7.5694427121e-20 -2.2033222474e-19 +2.2898338031e-16 5.1100000000e-04 5.1099893000e-04 0.0000e+00 1.0000e+00
       50  1    1    2    0    0 -2.4315497742e-03 -1.5024818410e-02 +6.2873885284e+00 6.2874089337e+00 4.9935713700e-03 0.0000e+00 0.0000e+00
       11  1    1    2    0    0 +4.5431156378e-03 +8.8784477711e-03 +1.0031407534e-01 1.0080992791e-01 5.1099893000e-04 0.0000e+00 1.0000e+00
<vert_displacement>
171.62707390210718
</vert_displacement>
</event>
<event>
 4   1200 +8.6263000e+09 8.98554800e-03 7.81665300e-03            nan
       50 -1    0    0    0    0 +1.4558061876e-02 +2.7094689003e-02 +2.6917332230e+01 2.6917350266e+01 4.9935713700e-03 0.0000e+00 0.0000e+00
       11 -1    0    0    0    0 +1.7938635536e-18 +3.3386432558e-18 +3.3167891206e-15 5.1100000000e-04 5.1099893000e-04 0.0000e+00 1.0000e+00
       50  1    1    2    0    0 +1.6281703134e-02 +3.4301184455e-02 +2.6862608603e+01 2.6862635901e+01 4.9935713700e-03 0.0000e+00 0.0000e+00
       11  1    1    2    0    0 -1.7236412581e-03 -7.2064954514e-03 +5.4723627020e-02 5.5225365458e-02 5.1099893000e-04 0.0000e+00 1.0000e+00
<vert_displacement>
335.65927604239710
</vert_displacement>
</event>
<event>
 4   1200 +8.6263000e+09 1.15215800e-02 7.81665300e-03            nan
       50 -1    0    0    0    0 -2.4175185480e-02 -5.5683128223e-03 +3.0430443245e+01 3.0430453767e+01 4.9935713700e-03 0.0000e+00 0.0000e+00
       11 -1    0    0    0    0 -1.9404135688e-18 -4.4693885656e-19 +2.4424898425e-15 5.1100000000e-04 5.1099893000e-04 0.0000e+00 1.0000e+00
       50  1    1    2    0    0 -1.9498177747e-02 +3.7632148326e-03 +3.0324587997e+01 3.0324594910e+01 4.9935713700e-03 0.0000e+00 0.0000e+00
       11  1    1    2    0    0 -4.6770077329e-03 -9.3315276550e-03 +1.0585524815e-01 1.0636985706e-01 5.1099893000e-04 0.0000e+00 1.0000e+00
<vert_displacement>
97.921709474095948
</vert_displacement>
</event>
<event>
 4   1200 +8.6263000e+09 1.12285900e-02 7.81665300e-03            nan
       50 -1    0    0    0    0 +6.2981629447e-03 -2.7928187361e-02 +1.2657549666e+01 1.2657583029e+01 4.9935713700e-03 0.0000e+00 0.0000e+00
       11 -1    0    0    0    0 -2.4513862016e-19 +1.0870276577e-18 -4.9266020696e-16 5.1100000000e-04 5.1099893000e-04 0.0000e+00 1.0000e+00
       50  1    1    2    0    0 +1.6267938639e-02 -2.6838074140e-02 +1.2557786832e+01 1.2557827041e+01 4.9935713700e-03 0.0000e+00 0.0000e+00
       11  1    1    2    0    0 -9.9697756944e-03 -1.0901132216e-03 +9.9762834009e-02 1.0026698830e-01 5.1099893000e-04 0.0000e+00 1.0000e+00
<vert_displacement>
158.47602791384449
</vert_displacement>
</event>
<event>
 4   1200 +8.6263000e+09 2.18164700e-02 7.81665300e-03            nan
       50 -1    0    0    0    0 +1.5353762130e-01 +1.3213379541e-01 +5.2109168015e+01 5.2109561975e+01 4.9935713700e-03 0.0000e+00 0.0000e+00
       11 -1    0    0    0    0 -1.0426962476e-17 -8.9733976266e-18 -3.5388091528e-15 5.1100000000e-04 5.1099893000e-04 0.0000e+00 1.0000e+00
       50  1    1    2    0    0 +1.3194199186e-01 +1.2471449074e-01 +5.1664125194e+01 5.1664444441e+01 4.9935713700e-03 0.0000e+00 0.0000e+00
       11  1    1    2    0    0 +2.1595629438e-02 +7.4193046698e-03 +4.4504282063e-01 4.4562853433e-01 5.1099893000e-04 0.0000e+00 1.0000e+00
<vert_displacement>
90.888471678947724
</vert_displacement>
</event>
<event>
 4   1200 +8.6263000e+09 5.06364300e-03 7.81665300e-03            nan
       50 -1    0    0    0    0 -1.2550484529e-02 +6.5039080436e-03 +4.5939709131e+00 4.5939953746e+00 4.9935713700e-03 0.0000e+00 0.0000e+00
       11 -1    0    0    0    0 +1.7250505865e-18 -8.9395515841e-19 -6.3143635608e-16 5.1100000000e-04 5.1099893000e-04 0.0000e+00 1.0000e+00
       50  1    1    2    0    0 -1.2883057032e-02 +7.2729052742e-03 +4.5932791777e+00 4.5933057169e+00 4.9935713700e-03 0.0000e+00 0.0000e+00
       11  1    1    2    0    0 +3.3257250316e-04 -7.6899723060e-04 +6.9173537730e-04 1.2006577152e-03 5.1099893000e-04 0.0000e+00 1.0000e+00
<vert_displacement>
235.02101992257795
</vert_displacement>
</event>
<event>
 4   1200 +8.6263000e+09 2.57953200e-02 7.81665300e-03            nan
       50 -1    0    0    0    0 +4.7130693869e-03 +7.6636788935e-03 +4.0773542853e+00 4.0773672693e+00 4.9935713700e-03 0.0000e+00 0.0000e+00
       11 -1    0    0    0    0 +8.9030241801e-19 +1.4476748144e-18 +7.7021534828e-16 5.1100000000e-04 5.1099893000e-04 0.0000e+00 1.0000e+00
       50  1    1    2    0    0 -1.8457062700e-02 -5.8057223104e-03 +3.3025107153e+00 3.3025711696e+00 4.9935713700e-03 0.0000e+00 0.0000e+00
       11  1    1    2    0    0 +2.3170132087e-02 +1.3469401204e-02 +7.7484356995e-01 7.7530709967e-01 5.1099893000e-04 0.0000e+00 1.0000e+00
<vert_displacement>
338.75938272895417
</vert_displacement>
</event>
<event>
 4   1200 +8.6263000e+09 9.56602700e-03 7.81665300e-03            nan
       50 -1    0    0    0    0 -1.6538011173e-02 -1.5287183131e-02 +8.9162763945e+00 8.9163062354e+00 4.9935713700e-03 0.0000e+00 0.0000e+00
       11 -1    0    0    0    0 -6.4351492578e-19 -5.9484362509e-19 +3.4694358846e-16 5.1100000000e-04 5.1099893000e-04 0.0000e+00 1.0000e+00
       50  1    1    2    0    0 -2.3320933549e-02 -1.0827376553e-02 +8.8506431159e+00 8.8506818720e+00 4.9935713700e-03 0.0000e+00 0.0000e+00
       11  1    1    2    0    0 +6.7829223767e-03 -4.4598065774e-03 +6.5633278644e-02 6.6135363431e-02 5.1099893000e-04 0.0000e+00 1.0000e+00
<vert_displacement>
102.20414220117986
</vert_displacement>
</event>
<event>
 4   1200 +8.6263000e+09 3.68941600e-02 7.81665300e-03            nan
       50 -1    0    0    0    0 -3.0330863183e-04 +1.3526317048e-02 +8.7670497514e+00 8.7670616134e+00 4.9935713700e-03 0.0000e+00 0.0000e+00
       11 -1    0    0    0    0 +1.6324126126e-20 -7.2798886131e-19 -4.7184422359e-16 5.1100000000e-04 5.1099893000e-04 0.0000e+00 1.0000e+00
       50  1    1    2    0    0 +1.2921074331e-02 -2.3043241506e-02 +7.1665350454e+00 7.1665854797e+00 4.9935713700e-03 0.0000e+00 0.0000e+00
       11  1    1    2    0    0 -1.3224382962e-02 +3.6569558554e-02 +1.6005147060e+00 1.6009871336e+00 5.1099893000e-04 0.0000e+00 1.0000e+00
<vert_displacement>
347.06478916298971
</vert_displacement>
</event>
<event>
 4   1200 +8.6263000e+09 2.19115700e-02 7.81665300e-03            nan
       50 -1    0    0    0    0 +4.2524900806e-02 -1.8228908612e-02 +1.8005269527e+01 1.8005329665e+01 4.9935713700e-03 0.0000e+00 0.0000e+00
       11 -1    0    0    0    0 +3.3759788414e-18 -1.4471617478e-18 +1.4294074249e-15 5.1100000000e-04 5.1099893000e-04 0.0000e+00 1.0000e+00
       50  1    1    2    0    0 +6.2622145572e-02 -2.0360341877e-02 +1.7548207720e+01 1.7548331978e+01 4.9935713700e-03 0.0000e+00 0.0000e+00
       11  1    1    2    0    0 -2.0097244766e-02 +2.1314332646e-03 +4.5706180703e-01 4.5750868715e-01 5.1099893000e-04 0.0000e+00 1.0000e+00
<vert_displacement>
171.02025287856816
</vert_displacement>
</event>
<event>
 4   1200 +8.6263000e+09 7.27460400e-03 7.81665300e-03            nan
       50 -1    0    0    0    0 +1.9520309724e-03 -1.5433857095e-03 +4.8873989581e+00 4.8874021426e+00 4.9935713700e-03 0.0000e+00 0.0000e+00
       11 -1    0    0    0    0 +9.4227576255e-20 -7.4501632756e-20 +2.3592236215e-16 5.1100000000e-04 5.1099893000e-04 0.0000e+00 1.0000e+00
       50  1    1    2    0    0 -3.2297500332e-03 -2.6514394304e-03 +4.8598601238e+00 4.8598644857e+00 4.9935713700e-03 0.0000e+00 0.0000e+00
       11  1    1    2    0    0 +5.1817810056e-03 +1.1080537209e-03 +2.7538834324e-02 2.8048656889e-02 5.1099893000e-04 0.0000e+00 1.0000e+00
<vert_displacement>
164.16492205906721
</vert_displacement>
</event>
<event>
 4   1200 +8.6263000e+09 1.05276100e-02 7.81665300e-03            nan
       50 -1    0    0    0    0 -8.4769698555e-03 +6.9496740104e-03 +7.7591109111e+00 7.7591202609e+00 4.9935713700e-03 0.0000e+00 0.0000e+00
       11 -1    0    0    0    0 +2.1226408799e-19 -1.7402046259e-19 -1.9428883543e-16 5.1100000000e-04 5.1099893000e-04 0.0000e+00 1.0000e+00
       50  1    1    2    0    0 -1.0498374041e-02 +1.5897114491e-02 +7.6741155284e+00 7.6741407997e+00 4.9935713700e-03 0.0000e+00 0.0000e+00
       11  1    1    2    0    0 +2.0214041854e-03 -8.9474404810e-03 +8.4995382660e-02 8.5490461219e-02 5.1099893000e-04 0.0000e+00 1.0000e+00
<vert_displacement>
124.07802506374611
</vert_displacement>
</event>
<event>
 4   1200 +8.6263000e+09 5.53574700e-03 7.81665300e-03            nan
       50 -1    0    0    0    0 +2.6720492841e-02 +2.9964754810e-03 +1.0758977581e+01 1.0759012338e+01 4.9935713700e-03 0.0000e+00 0.0000e+00
       11 -1    0    0    0    0 +6.7208926640e-19 +7.5369081692e-20 +2.7061601717e-16 5.1100000000e-04 5.1099893000e-04 0.0000e+00 1.0000e+00
       50  1    1    2    0    0 +2.7638081386e-02 +5.1951685053e-03 +1.0753385644e+01 1.0753423576e+01 4.9935713700e-03 0.0000e+00 0.0000e+00
       11  1    1    2    0    0 -9.1758854540e-04 -2.1986930243e-03 +5.5919363377e-03 6.0997616072e-03 5.1099893000e-04 0.0000e+00 1.0000e+00
<vert_displacement>
159.53985503676228
</vert_displacement>
</event>
<event>
 4   1200 +8.6263000e+09 1.85128000e-02 7.81665300e-03            nan
       50 -1    0    0    0    0 -1.2461751381e-02 +6.4694826213e-03 +6.3203302218e+00 6.3203477909e+00 4.9935713700e-03 0.0000e+00 0.0000e+00
       11 -1    0    0    0    0 +1.1492321697e-18 -5.9662059709e-19 -5.8286564961e-16 5.1100000000e-04 5.1099893000e-04 0.0000e+00 1.0000e+00
       50  1    1    2    0    0 -2.7722058503e-02 +1.4180352830e-02 +5.9922252071e+00 5.9923081916e+00 4.9935713700e-03 0.0000e+00 0.0000e+00
       11  1    1    2    0    0 +1.5260307122e-02 -7.7108702090e-03 +3.2810501472e-01 3.2855059930e-01 5.1099893000e-04 0.0000e+00 1.0000e+00
<vert_displacement>
409.32172215431461
</vert_displacement>
</event>
<event>
 4   1200 +8.6263000e+09 2.31715300e-02 7.81665300e-03            nan
       50 -1    0    0    0    0 +3.2332997804e-02 +2.5298077705e-02 +1.1623426529e+01 1.1623500102e+01 4.9935713700e-03 0.0000e+00 0.0000e+00
       11 -1    0    0    0    0 +1.0809045955e-18 +8.4572450142e-19 +3.8857563490e-16 5.1100000000e-04 5.1099893000e-04 0.0000e+00 1.0000e+00
       50  1    1    2    0    0 +4.9409764255e-02 +3.7132184386e-02 +1.1098628241e+01 1.1098801462e+01 4.9935713700e-03 0.0000e+00 0.0000e+00
       11  1    1    2    0    0 -1.7076766450e-02 -1.1834106681e-02 +5.2479828816e-01 5.2520964044e-01 5.1099893000e-04 0.0000e+00 1.0000e+00
<vert_displacement>
148.78258523751282
</vert_displacement>
</event>
<event>
 4   1200 +8.6263000e+09 1.18843500e-02 7.81665300e-03            nan
       50 -1    0    0    0    0 +1.2099663244e-01 -4.1596485736e-02 +4.4908730155e+01 4.4908912696e+01 4.9935713700e-03 0.0000e+00 0.0000e+00
       11 -1    0    0    0    0 -1.4133599747e-17 +4.8588796929e-18 -5.2457825012e-15 5.1100000000e-04 5.1099893000e-04 0.0000e+00 1.0000e+00
       50  1    1    2    0    0 +1.1549780480e-01 -5.0943368297e-02 +4.4794646214e+01 4.4794824359e+01 4.9935713700e-03 0.0000e+00 0.0000e+00
       11  1    1    2    0    0 +5.4988276311e-03 +9.3468825609e-03 +1.1408394095e-01 1.1459933691e-01 5.1099893000e-04 0.0000e+00 1.0000e+00
<vert_displacement>
120.58449302053457
</vert_displacement>
</event>
<event>
 4   1200 +8.6263000e+09 8.72687000e-03 7.81665300e-03            nan
       50 -1    0    0    0    0 +1.2841284160e-02 -3.1085850838e-03 +2.2409768727e+01 2.2409773178e+01 4.9935713700e-03 0.0000e+00 0.0000e+00
       11 -1    0    0    0    0 +1.2723635871e-19 -3.0801050883e-20 +2.2204456633e-16 5.1100000000e-04 5.1099893000e-04 0.0000e+00 1.0000e+00
       50  1    1    2    0    0 +6.5203053524e-03 -6.5120105924e-03 +2.2359538139e+01 2.2359540596e+01 4.9935713700e-03 0.0000e+00 0.0000e+00
       11  1    1    2    0    0 +6.3209788072e-03 +3.4034255086e-03 +5.0230587901e-02 5.0743582442e-02 5.1099893000e-04 0.0000e+00 1.0000e+00
<vert_displacement>
147.56428779808314
</vert_displacement>
</event>
<event>
 4   1200 +8.6263000e+09 6.24282000e-03 7.81665300e-03            nan
       50 -1    0    0    0    0 +2.8874840462e-02 -1.4276545214e-02 +1.2312860683e+01 1.2312903830e+01 4.9935713700e-03 0.0000e+00 0.0000e+00
       11 -1    0    0    0    0 -1.2366960712e-18 +6.1145783299e-19 -5.2735413213e-16 5.1100000000e-04 5.1099893000e-04 0.0000e+00 1.0000e+00
       50  1    1    2    0    0 +2.8244807905e-02 -1.7959208168e-02 +1.2299107006e+01 1.2299153564e+01 4.9935713700e-03 0.0000e+00 0.0000e+00
       11  1    1    2    0    0 +6.3003255751e-04 +3.6826629534e-03 +1.3753676970e-02 1.4261265636e-02 5.1099893000e-04 0.0000e+00 1.0000e+00
<vert_displacement>
309.39187182643053
</vert_displacement>
</event>
<event>
 4   1200 +8.6263000e+09 8.47016500e-03 7.81665300e-03            nan
       50 -1    0    0    0    0 -3.7497209792e-02 +1.2241330256e-02 +1.1857202270e+01 1.1857268931e+01 4.9935713700e-03 0.0000e+00 0.0000e+00
       11 -1    0    0    0    0 +2.6332119314e-19 -8.5963774545e-20 -8.3266266110e-17 5.1100000000e-04 5.1099893000e-04 0.0000e+00 1.0000e+00
       50  1    1    2    0    0 -4.4089610069e-02 +1.1006653412e-02 +1.1811201459e+01 1.1811289933e+01 4.9935713700e-03 0.0000e+00 0.0000e+00
       11  1    1    2    0    0 +6.5924002764e-03 +1.2346768439e-03 +4.6000810716e-02 4.6489997577e-02 5.1099893000e-04 0.0000e+00 1.0000e+00
<vert_displacement>
390.38936739558108
</vert_displacement>
</event>
<event>
 4   1200 +8.6263000e+09 1.01146800e-02 7.81665300e-03            nan
       50 -1    0    0    0    0 -6.2755857709e-03 -3.9269780711e-03 +1.3876097397e+01 1.3876100270e+01 4.9935713700e-03 0.0000e+00 0.0000e+00
       11 -1    0    0    0    0 -1.8201413204e-19 -1.1389622120e-19 +4.0245578915e-16 5.1100000000e-04 5.1099893000e-04 0.0000e+00 1.0000e+00
       50  1    1    2    0    0 -1.1976498141e-02 +2.7636575175e-03 +1.3799970137e+01 1.3799976514e+01 4.9935713700e-03 0.0000e+00 0.0000e+00
       11  1    1    2    0    0 +5.7009123700e-03 -6.6906355885e-03 +7.6127259959e-02 7.6634756052e-02 5.1099893000e-04 0.0000e+00 1.0000e+00
<vert_displacement>
438.39508573583811
</vert_displacement>
</event>
<event>
 4   1200 +8.6263000e+09 7.65327100e-03 7.81665300e-03            nan
       50 -1    0    0    0    0 +6.3635126978e-04 -4.8833835270e-03 +2.6952898235e+00 2.6952989483e+00 4.9935713700e-03 0.0000e+00 0.0000e+00
       11 -1    0    0    0    0 -6.0615360133e-20 +4.6516454859e-19 -2.5673864589e-16 5.1100000000e-04 5.1099893000e-04 0.0000e+00 1.0000e+00
       50  1    1    2    0    0 -5.1707447018e-03 -4.8990568283e-03 +2.6619561139e+00 2.6619703277e+00 4.9935713700e-03 0.0000e+00 0.0000e+00
       11  1    1    2    0    0 +5.8070959716e-03 +1.5673301344e-05 +3.3333709596e-02 3.3839620633e-02 5.1099893000e-04 0.0000e+00 1.0000e+00
<vert_displacement>
360.47903270343608
</vert_displacement>
</event>
<event>
 4   1200 +8.6263000e+09 2.45233600e-02 7.81665300e-03            nan
       50 -1    0    0    0    0 -4.2402686129e-02 -1.4724788866e-02 +1.6186366541e+01 1.6186429549e+01 4.9935713700e-03 0.0000e+00 0.0000e+00
       11 -1    0    0    0    0 +5.6713593977e-18 +1.9694405553e-18 -2.1649265737e-15 5.1100000000e-04 5.1099893000e-04 0.0000e+00 1.0000e+00
       50  1    1    2    0    0 -5.2202327022e-02 +6.9742557505e-03 +1.5601097289e+01 1.5601186983e+01 4.9935713700e-03 0.0000e+00 0.0000e+00
       11  1    1    2    0    0 +9.7996408930e-03 -2.1699044617e-02 +5.8526925201e-01 5.8575356590e-01 5.1099893000e-04 0.0000e+00 1.0000e+00
<vert_displacement>
240.19348589820603
</vert_displacement>
</event>
<event>
 4   1200 +8.6263000e+09 1.16474500e-02 7.81665300e-03            nan
       50 -1    0    0    0    0 -2.1308459069e-02 -3.6628203811e-03 +6.7759147319e+00 6.7759510665e+00 4.9935713700e-03 0.0000e+00 0.0000e+00
       11 -1    0    0    0    0 +4.3641748718e-19 +7.5018041499e-20 -1.3877717160e-16 5.1100000000e-04 5.1099893000e-04 0.0000e+00 1.0000e+00
       50  1    1    2    0    0 -2.3924570881e-02 +6.4937988568e-03 +6.6657624731e+00 6.6658104412e+00 4.9935713700e-03 0.0000e+00 0.0000e+00
       11  1    1    2    0    0 +2.6161118122e-03 -1.0156619238e-02 +1.1015225879e-01 1.1065162535e-01 5.1099893000e-04 0.0000e+00 1.0000e+00
<vert_displacement>
68.722374408172911
</vert_displacement>
</event>
<event>
 4   1200 +8.6263000e+09 6.22384400e-03 7.81665300e-03            nan
       50 -1    0    0    0    0 +1.0870363845e-02 +7.2508949868e-03 +3.3941682131e+00 3.3941970383e+00 4.9935713700e-03 0.0000e+00 0.0000e+00
       11 -1    0    0    0    0 -6.4445967152e-19 -4.2987608033e-19 -2.0122643206e-16 5.1100000000e-04 5.1099893000e-04 0.0000e+00 1.0000e+00
       50  1    1    2    0    0 +1.1416991483e-02 +1.0889654099e-02 +3.3805985781e+00 3.3806390837e+00 4.9935713700e-03 0.0000e+00 0.0000e+00
       11  1    1    2    0    0 -5.4662763863e-04 -3.6387591118e-03 +1.3569634930e-02 1.4068954534e-02 5.1099893000e-04 0.0000e+00 1.0000e+00
<vert_displacement>
361.98884271604499
</vert_displacement>
</event>
<event>
 4   1200 +8.6263000e+09 1.15576800e-02 7.81665300e-03            nan
       50 -1    0    0    0    0 -8.4591155227e-02 +1.9127741406e-02 +2.8166054257e+01 2.8166188221e+01 4.9935713700e-03 0.0000e+00 0.0000e+00
       11 -1    0    0    0    0 +3.7094296168e-18 -8.3877575951e-19 -1.2351172598e-15 5.1100000000e-04 5.1099893000e-04 0.0000e+00 1.0000e+00
       50  1    1    2    0    0 -8.8109137039e-02 +9.3645364335e-03 +2.8059337725e+01 2.8059478067e+01 4.9935713700e-03 0.0000e+00 0.0000e+00
       11  1    1    2    0    0 +3.5179818128e-03 +9.7632049724e-03 +1.0671653259e-01 1.0722115377e-01 5.1099893000e-04 0.0000e+00 1.0000e+00
<vert_displacement>
228.80762502545880
</vert_displacement>
</event>
<event>
 4   1200 +8.6263000e+09 7.59676700e-03 7.81665300e-03            nan
       50 -1    0    0    0    0 +5.8324353453e-03 -2.2678381678e-02 +1.0683084023e+01 1.0683110854e+01 4.9935713700e-03 0.0000e+00 0.0000e+00
       11 -1    0    0    0    0 +2.2729702072e-19 -8.8380381178e-19 +4.1633263411e-16 5.1100000000e-04 5.1099893000e-04 0.0000e+00 1.0000e+00
       50  1    1    2    0    0 +4.8991244412e-03 -2.8261322517e-02 +1.0650904407e+01 1.0650944199e+01 4.9935713700e-03 0.0000e+00 0.0000e+00
       11  1    1    2    0    0 +9.3331090412e-04 +5.5829408386e-03 +3.2179615824e-02 3.2677654325e-02 5.1099893000e-04 0.0000e+00 1.0000e+00
<vert_displacement>
358.18171117838591
</vert_displacement>
</event>
<event>
 4   1200 +8.6263000e+09 1.59353200e-02 7.81665300e-03            nan
       50 -1    0    0    0    0 -2.5212462845e-02 +3.2276309611e-02 +1.6568076697e+01 1.6568128072e+01 4.9935713700e-03 0.0000e+00 0.0000e+00
       11 -1    0    0    0    0 -1.4149363161e-18 +1.8113630112e-18 +9.2980894218e-16 5.1100000000e-04 5.1099893000e-04 0.0000e+00 1.0000e+00
       50  1    1    2    0    0 -1.8847595290e-02 +1.7949640079e-02 +1.6340917493e+01 1.6340938984e+01 4.9935713700e-03 0.0000e+00 0.0000e+00
       11  1    1    2    0    0 -6.3648675547e-03 +1.4326669532e-02 +2.2715920406e-01 2.2770008808e-01 5.1099893000e-04 0.0000e+00 1.0000e+00
<vert_displacement>
115.70718474834106
</vert_displacement>
</event>
<event>
 4   1200 +8.6263000e+09 1.33881600e-02 7.81665300e-03            nan
       50 -1    0    0    0    0 +6.1244554563e-02 -1.0797751644e-02 +1.9696056189e+01 1.9696155001e+01 4.9935713700e-03 0.0000e+00 0.0000e+00
       11 -1    0    0    0    0 +3.9700329486e-18 -6.9993863297e-19 +1.2767501141e-15 5.1100000000e-04 5.1099893000e-04 0.0000e+00 1.0000e+00
       50  1    1    2    0    0 +6.7983580332e-02 -6.0041405073e-04 +1.9543873606e+01 1.9543992494e+01 4.9935713700e-03 0.0000e+00 0.0000e+00
       11  1    1    2    0    0 -6.7390257687e-03 -1.0197337593e-02 +1.5218258261e-01 1.5267350697e-01 5.1099893000e-04 0.0000e+00 1.0000e+00
<vert_displacement>
31.209965277224718
</vert_displacement>
</event>
<event>
 4   1200 +8.6263000e+09 1.59807900e-02 7.81665300e-03            nan
       50 -1    0    0    0    0 +2.2487834371e-02 +1.5315599778e-02 +7.7121395403e+00 7.7121891506e+00 4.9935713700e-03 0.0000e+00 0.0000e+00
       11 -1    0    0    0    0 -1.0723490444e-18 -7.3033572351e-19 -3.6775908829e-16 5.1100000000e-04 5.1099893000e-04 0.0000e+00 1.0000e+00
       50  1    1    2    0    0 +3.3097478973e-02 +4.7030623023e-03 +7.4795907730e+00 7.4796671470e+00 4.9935713700e-03 0.0000e+00 0.0000e+00
       11  1    1    2    0    0 -1.0609644602e-02 +1.0612537476e-02 +2.3254876728e-01 2.3303300366e-01 5.1099893000e-04 0.0000e+00 1.0000e+00
<vert_displacement>
270.63261006654477
</vert_displacement>
</event>
<event>
 4   1200 +8.6263000e+09 4.38920500e-02 7.81665300e-03            nan
       50 -1    0    0    0    0 +1.9627215249e-02 +1.4601348981e-02 +8.2400898409e+00 8.2401276658e+00 4.9935713700e-03 0.0000e+00 0.0000e+00
       11 -1    0    0    0    0 +1.0247236543e-18 +7.6232657030e-19 +4.3020952623e-16 5.1100000000e-04 5.1099893000e-04 0.0000e+00 1.0000e+00
       50  1    1    2    0    0 +4.3394434630e-02 +4.0670920097e-02 +5.3920273609e+00 5.3923576660e+00 4.9935713700e-03 0.0000e+00 0.0000e+00
       11  1    1    2    0    0 -2.3767219381e-02 -2.6069571116e-02 +2.8480624800e+00 2.8482809999e+00 5.1099893000e-04 0.0000e+00 1.0000e+00
<vert_displacement>
184.09264745684052
</vert_displacement>
</event>
<event>
 4   1200 +8.6263000e+09 7.57360500e-02 7.81665300e-03            nan
       50 -1    0    0    0    0 +8.8427372402e-02 +5.7085114374e-02 +3.8970474541e+01 3.8970616995e+01 4.9935713700e-03 0.0000e+00 0.0000e+00
       11 -1    0    0    0    0 -1.5429994275e-18 -9.9609766078e-19 -6.8000912243e-16 5.1100000000e-04 5.1099893000e-04 0.0000e+00 -1.0000e+00
       50  1    1    2    0    0 +2.1176600536e-02 -7.7447340377e-03 +3.2208411436e+01 3.2208419716e+01 4.9935713700e-03 0.0000e+00 0.0000e+00
       11  1    1    2    0    0 +6.7250771866e-02 +6.4829848412e-02 +6.7620631052e+00 6.7627082796e+00 5.1099893000e-04 0.0000e+00 -1.0000e+00
<vert_displacement>
126.71954953633399
</vert_displacement>
</event>
<event>
 4   1200 +8.6263000e+09 8.98313100e-03 7.81665300e-03            nan
       50 -1    0    0    0    0 +1.1507973427e-02 +9.8525731369e-03 +6.2170159711e+00 6.2170364344e+00 4.9935713700e-03 0.0000e+00 0.0000e+00
       11 -1    0    0    0    0 +2.5688326990e-20 +2.1993109563e-20 +1.3877746606e-17 5.1100000000e-04 5.1099893000e-04 0.0000e+00 1.0000e+00
       50  1    1    2    0    0 +4.4862317586e-03 +1.2571873452e-02 +6.1619700173e+00 6.1619864986e+00 4.9935713700e-03 0.0000e+00 0.0000e+00
       11  1    1    2    0    0 +7.0217416686e-03 -2.7193003155e-03 +5.5045953713e-02 5.5560935830e-02 5.1099893000e-04 0.0000e+00 1.0000e+00
<vert_displacement>
381.82240835987290
</vert_displacement>
</event>
<event>
 4   1200 +8.6263000e+09 6.07986600e-03 7.81665300e-03            nan
       50 -1    0    0    0    0 +3.4627944508e-02 +1.6013575279e-02 +1.7099186465e+01 1.7099229755e+01 4.9935713700e-03 0.0000e+00 0.0000e+00
       11 -1    0    0    0    0 +1.4052074084e-19 +6.4983339138e-20 +6.9388766325e-17 5.1100000000e-04 5.1099893000e-04 0.0000e+00 1.0000e+00
       50  1    1    2    0    0 +3.7603829567e-02 +1.7743384684e-02 +1.7087400243e+01 1.7087451561e+01 4.9935713700e-03 0.0000e+00 0.0000e+00
       11  1    1    2    0    0 -2.9758850594e-03 -1.7298094056e-03 +1.1786222124e-02 1.2289193803e-02 5.1099893000e-04 0.0000e+00 1.0000e+00
<vert_displacement>
402.36927883957463
</vert_displacement>
</event>
<event>
 4   1200 +8.6263000e+09 1.85297500e-02 7.81665300e-03            nan
       50 -1    0    0    0    0 +2.3121811905e-02 -1.6728744235e-02 +7.5255225067e+00 7.5255782770e+00 4.9935713700e-03 0.0000e+00 0.0000e+00
       11 -1    0    0    0    0 +1.1512405786e-18 -8.3292820089e-19 +3.7469757648e-16 5.1100000000e-04 5.1099893000e-04 0.0000e+00 1.0000e+00
       50  1    1    2    0    0 +3.9796884241e-02 -1.8449441781e-02 +7.1997388750e+00 7.1998742334e+00 4.9935713700e-03 0.0000e+00 0.0000e+00
       11  1    1    2    0    0 -1.6675072336e-02 +1.7206975463e-03 +3.2578363169e-01 3.2621504355e-01 5.1099893000e-04 0.0000e+00 1.0000e+00
<vert_displacement>
497.98053954264822
</vert_displacement>
</event>
<event>
 4   1200 +8.6263000e+09 3.47351100e-02 7.81665300e-03            nan
       50 -1    0    0    0    0 +5.8821542810e-03 +9.8605361857e-03 +7.9193891225e+00 7.9193990200e+00 4.9935713700e-03 0.0000e+00 0.0000e+00
       11 -1    0    0    0    0 -2.8346354150e-19 -4.7518347442e-19 -3.8163876361e-16 5.1100000000e-04 5.1099893000e-04 0.0000e+00 1.0000e+00
       50  1    1    2    0    0 -1.6665476697e-02 -1.8709682481e-02 +6.5124896630e+00 6.5125397762e+00 4.9935713700e-03 0.0000e+00 0.0000e+00
       11  1    1    2    0    0 +2.2547630978e-02 +2.8570218666e-02 +1.4068994595e+00 1.4073702438e+00 5.1099893000e-04 0.0000e+00 1.0000e+00
<vert_displacement>
27.234914465318813
</vert_displacement>
</event>
<event>
 4   1200 +8.6263000e+09 2.92228600e-02 7.81665300e-03            nan
       50 -1    0    0    0    0 +1.0436914667e-02 -1.9538847483e-04 +4.9113394053e+00 4.9113530373e+00 4.9935713700e-03 0.0000e+00 0.0000e+00
       11 -1    0    0    0    0 -3.2440245481e-19 +6.0731071298e-21 -1.5265532108e-16 5.1100000000e-04 5.1099893000e-04 0.0000e+00 1.0000e+00
       50  1    1    2    0    0 -2.7992187943e-03 +2.6432346494e-02 +3.8842161530e+00 3.8843103073e+00 4.9935713700e-03 0.0000e+00 0.0000e+00
       11  1    1    2    0    0 +1.3236133461e-02 -2.6627734969e-02 +1.0271232524e+00 1.0275537301e+00 5.1099893000e-04 0.0000e+00 1.0000e+00
<vert_displacement>
281.64819914900801
</vert_displacement>
</event>
<event>
 4   1200 +8.6263000e+09 6.91716400e-03 7.81665300e-03            nan
       50 -1    0    0    0    0 -5.8191518379e-04 +4.6464606469e-04 +2.3664929907e+00 2.3664983764e+00 4.9935713700e-03 0.0000e+00 0.0000e+00
       11 -1    0    0    0    0 -1.7062579679e-20 +1.3624082551e-20 +6.9388935604e-17 5.1100000000e-04 5.1099893000e-04 0.0000e+00 1.0000e+00
       50  1    1    2    0    0 -3.3531625470e-03 +4.3590084694e-03 +2.3438496058e+00 2.3438613771e+00 4.9935713700e-03 0.0000e+00 0.0000e+00
       11  1    1    2    0    0 +2.7712473632e-03 -3.8943624047e-03 +2.2643384913e-02 2.3147999281e-02 5.1099893000e-04 0.0000e+00 1.0000e+00
<vert_displacement>
114.11206989185372
</vert_displacement>
</event>
<event>
 4   1200 +8.6263000e+09 2.63340800e-02 7.81665300e-03            nan
       50 -1    0    0    0    0 +1.2531125259e-02 -1.8025342252e-02 +8.7848311631e+00 8.7848600126e+00 4.9935713700e-03 0.0000e+00 0.0000e+00
       11 -1    0    0    0    0 +9.8979565512e-19 -1.4237672256e-18 +6.9388722375e-16 5.1100000000e-04 5.1099893000e-04 0.0000e+00 1.0000e+00
       50  1    1    2    0    0 +3.7371272162e-02 -1.6422631375e-02 +8.0727255143e+00 8.0728302645e+00 4.9935713700e-03 0.0000e+00 0.0000e+00
       11  1    1    2    0    0 -2.4840146903e-02 -1.6027108772e-03 +7.1210564881e-01 7.1254074814e-01 5.1099893000e-04 0.0000e+00 1.0000e+00
<vert_displacement>
185.73184190763286
</vert_displacement>
</event>
<event>
 4   1200 +8.6263000e+09 3.60199800e-02 7.81665300e-03            nan
       50 -1    0    0    0    0 +1.2924622195e-02 -5.0380443667e-02 +2.1552255051e+01 2.1552318389e+01 4.9935713700e-03 0.0000e+00 0.0000e+00
       11 -1    0    0    0    0 +8.7384300934e-19 -3.4062580585e-18 +1.4571634766e-15 5.1100000000e-04 5.1099893000e-04 0.0000e+00 1.0000e+00
       50  1    1    2    0    0 +4.4575290203e-02 -3.2455210956e-02 +2.0225346032e+01 2.0225421808e+01 4.9935713700e-03 0.0000e+00 0.0000e+00
       11  1    1    2    0    0 -3.1650668008e-02 -1.7925232711e-02 +1.3269090190e+00 1.3274075804e+00 5.1099893000e-04 0.0000e+00 1.0000e+00
<vert_displacement>
47.276902777274195
</vert_displacement>
</event>
<event>
 4   1200 +8.6263000e+09 1.10770200e-02 7.81665300e-03            nan
       50 -1    0    0    0    0 -2.9855702044e-02 -2.6571869092e-03 +1.3710707221e+01 1.3710740894e+01 4.9935713700e-03 0.0000e+00 0.0000e+00
       11 -1    0    0    0    0 +3.3543595684e-18 +2.9854130781e-19 -1.5404307656e-15 5.1100000000e-04 5.1099893000e-04 0.0000e+00 1.0000e+00
       50  1    1    2    0    0 -2.3580276555e-02 -1.0447005540e-02 +1.3614377329e+01 1.3614402674e+01 4.9935713700e-03 0.0000e+00 0.0000e+00
       11  1    1    2    0    0 -6.2754254887e-03 +7.7898186310e-03 +9.6329892061e-02 9.6849220254e-02 5.1099893000e-04 0.0000e+00 1.0000e+00
<vert_displacement>
4.2523503404623417
</vert_displacement>
</event>
<event>
 4   1200 +8.6263000e+09 1.13547800e-02 7.81665300e-03            nan
       50 -1    0    0    0    0 +4.4524230936e-02 +1.0244663058e-02 +1.3188264579e+01 1.3188344661e+01 4.9935713700e-03 0.0000e+00 0.0000e+00
       11 -1    0    0    0    0 +2.8111088513e-19 +6.4681326092e-20 +8.3266227204e-17 5.1100000000e-04 5.1099893000e-04 0.0000e+00 1.0000e+00
       50  1    1    2    0    0 +4.1234984385e-02 +4.0110240771e-04 +1.3085723219e+01 1.3085789147e+01 4.9935713700e-03 0.0000e+00 0.0000e+00
       11  1    1    2    0    0 +3.2892465511e-03 +9.8435606505e-03 +1.0254135996e-01 1.0306651469e-01 5.1099893000e-04 0.0000e+00 1.0000e+00
<vert_displacement>
308.00074380685618
</vert_displacement>
</event>
<event>
 4   1200 +8.6263000e+09 1.72629100e-02 7.81665300e-03            nan
       50 -1    0    0    0    0 -4.2762643978e-03 -2.8983996521e-03 +4.3254666852e+00 4.3254726525e+00 4.9935713700e-03 0.0000e+00 0.0000e+00
       11 -1    0    0    0    0 +3.7729774097e-19 +2.5572778936e-19 -3.8163889253e-16 5.1100000000e-04 5.1099893000e-04 0.0000e+00 1.0000e+00
       50  1    1    2    0    0 +8.8712676989e-03 -1.3078491186e-02 +4.0391938537e+00 4.0392278556e+00 4.9935713700e-03 0.0000e+00 0.0000e+00
       11  1    1    2    0    0 -1.3147532097e-02 +1.0180091534e-02 +2.8627283147e-01 2.8675579684e-01 5.1099893000e-04 0.0000e+00 1.0000e+00
<vert_displacement>
462.73517827949382
</vert_displacement>
</event>
<event>
 4   1200 +8.6263000e+09 6.00123000e-03 7.81665300e-03            nan
       50 -1    0    0    0    0 -6.8003222931e-02 -4.1652123943e-02 +2.7048088657e+01 2.7048206674e+01 4.9935713700e-03 0.0000e+00 0.0000e+00
       11 -1    0    0    0    0 +1.7096505492e-18 +1.0471647299e-18 -6.8000864714e-16 5.1100000000e-04 5.1099893000e-04 0.0000e+00 1.0000e+00
       50  1    1    2    0    0 -7.1152152462e-02 -4.2630761563e-02 +2.7037234114e+01 2.7037361807e+01 4.9935713700e-03 0.0000e+00 0.0000e+00
       11  1    1    2    0    0 +3.1489295312e-03 +9.7863762019e-04 +1.0854543458e-02 1.1355867310e-02 5.1099893000e-04 0.0000e+00 1.0000e+00
<vert_displacement>
399.11583674721965
</vert_displacement>
</event>
<event>
 4   1200 +8.6263000e+09 1.33212100e-02 7.81665300e-03            nan
       50 -1    0    0    0    0 -3.8566992378e-02 -2.8163333086e-02 +1.7918521341e+01 1.7918585675e+01 4.9935713700e-03 0.0000e+00 0.0000e+00
       11 -1    0    0    0    0 +2.6882819347e-19 +1.9631030290e-19 -1.2489964669e-16 5.1100000000e-04 5.1099893000e-04 0.0000e+00 1.0000e+00
       50  1    1    2    0    0 -4.6408052477e-02 -1.8661167993e-02 +1.7768013164e+01 1.7768084271e+01 4.9935713700e-03 0.0000e+00 0.0000e+00
       11  1    1    2    0    0 +7.8410600988e-03 -9.5021650934e-03 +1.5050817758e-01 1.5101240348e-01 5.1099893000e-04 0.0000e+00 1.0000e+00
<vert_displacement>
286.37612244120487
</vert_displacement>
</event>
<event>
 4   1200 +8.6263000e+09 7.55296100e-03 7.81665300e-03            nan
       50 -1    0    0    0    0 -1.0199188949e-03 +2.4256943096e-02 +1.0297846950e+01 1.0297876780e+01 4.9935713700e-03 0.0000e+00 0.0000e+00
       11 -1    0    0    0    0 -1.7593336533e-19 +4.1842598001e-18 +1.7763519026e-15 5.1100000000e-04 5.1099893000e-04 0.0000e+00 1.0000e+00
       50  1    1    2    0    0 -6.1711837822e-03 +2.1828185100e-02 +1.0266333594e+01 1.0266359869e+01 4.9935713700e-03 0.0000e+00 0.0000e+00
       11  1    1    2    0    0 +5.1512648873e-03 +2.4287579960e-03 +3.1513355877e-02 3.2027911482e-02 5.1099893000e-04 0.0000e+00 1.0000e+00
<vert_displacement>
278.46082947871065
</vert_displacement>
</event>
<event>
 4   1200 +8.6263000e+09 5.21636400e-02 7.81665300e-03            nan
       50 -1    0    0    0    0 +6.5714599992e-02 -4.5625795203e-02 +3.5941926300e+01 3.5942015681e+01 4.9935713700e-03 0.0000e+00 0.0000e+00
       11 -1    0    0    0    0 +4.0343800788e-18 -2.8010792011e-18 +2.2065627954e-15 5.1100000000e-04 5.1099893000e-04 0.0000e+00 1.0000e+00
       50  1    1    2    0    0 +8.0691112457e-02 -8.9812351358e-02 +3.3074887806e+01 3.3075108550e+01 4.9935713700e-03 0.0000e+00 0.0000e+00
       11  1    1    2    0    0 -1.4976512465e-02 +4.4186556155e-02 +2.8670384947e+00 2.8674181311e+00 5.1099893000e-04 0.0000e+00 1.0000e+00
<vert_displacement>
104.26596303441345
</vert_displacement>
</event>
<event>
 4   1200 +8.6263000e+09 7.53698400e-03 7.81665300e-03            nan
       50 -1    0    0    0    0 -4.8692518953e-02 -3.5188138363e-02 +2.2842580744e+01 2.2842660290e+01 4.9935713700e-03 0.0000e+00 0.0000e+00
       11 -1    0    0    0    0 -5.4136092283e-18 -3.9121991358e-18 +2.5396263856e-15 5.1100000000e-04 5.1099893000e-04 0.0000e+00 1.0000e+00
       50  1    1    2    0    0 -4.3105067440e-02 -3.6319056697e-02 +2.2811363060e+01 2.2811433245e+01 4.9935713700e-03 0.0000e+00 0.0000e+00
       11  1    1    2    0    0 -5.5874515130e-03 +1.1309183339e-03 +3.1217683631e-02 3.1738044708e-02 5.1099893000e-04 0.0000e+00 1.0000e+00
<vert_displacement>
2.5399051904256207
</vert_displacement>
</event>
<event>
 4   1200 +8.6263000e+09 3.88029700e-02 7.81665300e-03            nan
       50 -1    0    0    0    0 +2.7203649566e-02 -1.1836882623e-02 +1.0739950447e+01 1.0739992583e+01 4.9935713700e-03 0.0000e+00 0.0000e+00
       11 -1    0    0    0    0 +4.3939336334e-19 -1.9118933490e-19 +1.7347168576e-16 5.1100000000e-04 5.1099893000e-04 0.0000e+00 1.0000e+00
       50  1    1    2    0    0 +5.4789208130e-02 -3.1362633997e-02 +9.0124741216e+00 9.0126966109e+00 4.9935713700e-03 0.0000e+00 0.0000e+00
       11  1    1    2    0    0 -2.7585558565e-02 +1.9525751373e-02 +1.7274763254e+00 1.7278069724e+00 5.1099893000e-04 0.0000e+00 1.0000e+00
<vert_displacement>
492.32211786213793
</vert_displacement>
</event>
<event>
 4   1200 +8.6263000e+09 2.30817600e-02 7.81665300e-03            nan
       50 -1    0    0    0    0 +2.2527662265e-02 -4.5571470283e-03 +7.6574519636e+00 7.6574880851e+00 4.9935713700e-03 0.0000e+00 0.0000e+00
       11 -1    0    0    0    0 -8.3695863243e-19 +1.6930933621e-19 -2.8449336855e-16 5.1100000000e-04 5.1099893000e-04 0.0000e+00 1.0000e+00
       50  1    1    2    0    0 -1.0760359673e-03 +4.9690429022e-04 +7.1231854227e+00 7.1231872716e+00 4.9935713700e-03 0.0000e+00 0.0000e+00
       11  1    1    2    0    0 +2.3603698233e-02 -5.0540513185e-03 +5.3426654095e-01 5.3481181354e-01 5.1099893000e-04 0.0000e+00 1.0000e+00
<vert_displacement>
344.89086655147429
</vert_displacement>
</event>
<event>
 4   1200 +8.6263000e+09 6.11757400e-03 7.81665300e-03            nan
       50 -1    0    0    0    0 +1.6808685448e-03 +1.1955508288e-02 +5.2762706135e+00 5.2762867892e+00 4.9935713700e-03 0.0000e+00 0.0000e+00
       11 -1    0    0    0    0 +3.9789483664e-20 +2.8301053237e-19 +1.2489976330e-16 5.1100000000e-04 5.1099893000e-04 0.0000e+00 1.0000e+00
       50  1    1    2    0    0 +1.0315152272e-03 +1.5402271824e-02 +5.2640131043e+00 5.2640381070e+00 4.9935713700e-03 0.0000e+00 0.0000e+00
       11  1    1    2    0    0 +6.4935331761e-04 -3.4467635356e-03 +1.2257509168e-02 1.2759682187e-02 5.1099893000e-04 0.0000e+00 1.0000e+00
<vert_displacement>
268.90330377024583
</vert_displacement>
</event>
<event>
 4   1200 +8.6263000e+09 7.66370400e-03 7.81665300e-03            nan
       50 -1    0    0    0    0 -1.0286655354e-02 -2.7923873542e-02 +1.5937983429e+01 1.5938011993e+01 4.9935713700e-03 0.0000e+00 0.0000e+00
       11 -1    0    0    0    0 -7.4342711427e-19 -2.0180869302e-18 +1.1518543803e-15 5.1100000000e-04 5.1099893000e-04 0.0000e+00 1.0000e+00
       50  1    1    2    0    0 -1.6078224778e-02 -2.7944010534e-02 +1.5904840438e+01 1.5904873896e+01 4.9935713700e-03 0.0000e+00 0.0000e+00
       11  1    1    2    0    0 +5.7915694237e-03 +2.0136992516e-05 +3.3142991470e-02 3.3649096353e-02 5.1099893000e-04 0.0000e+00 1.0000e+00
<vert_displacement>
49.096014247613773
</vert_displacement>
</event>
<event>
 4   1200 +8.6263000e+09 1.54804900e-02 7.81665300e-03            nan
       50 -1    0    0    0    0 -3.3209683172e-02 -1.8948103994e-02 +1.0208164229e+01 1.0208237055e+01 4.9935713700e-03 0.0000e+00 0.0000e+00
       11 -1    0    0    0    0 -2.7088535790e-19 -1.5455624510e-19 +8.3266142779e-17 5.1100000000e-04 5.1099893000e-04 0.0000e+00 1.0000e+00
       50  1    1    2    0    0 -3.1874629349e-02 -3.3188840579e-02 +9.9935194170e+00 9.9936266073e+00 4.9935713700e-03 0.0000e+00 0.0000e+00
       11  1    1    2    0    0 -1.3350538227e-03 +1.4240736585e-02 +2.1464481204e-01 2.1512144803e-01 5.1099893000e-04 0.0000e+00 1.0000e+00
<vert_displacement>
217.13140920163852
</vert_displacement>
</event>
<event>
 4   1200 +8.6263000e+09 1.87864000e-02 7.81665300e-03            nan
       50 -1    0    0    0    0 -1.7610807576e-02 -3.1830473872e-02 +1.5868427560e+01 1.5868470043e+01 4.9935713700e-03 0.0000e+00 0.0000e+00
       11 -1    0    0    0    0 -1.4323443140e-18 -2.5888760675e-18 +1.2906308748e-15 5.1100000000e-04 5.1099893000e-04 0.0000e+00 1.0000e+00
       50  1    1    2    0    0 -3.3106004032e-02 -3.9918788393e-02 +1.5540671863e+01 1.5540759196e+01 4.9935713700e-03 0.0000e+00 0.0000e+00
       11  1    1    2    0    0 +1.5495196456e-02 +8.0883145213e-03 +3.2775569745e-01 3.2822184613e-01 5.1099893000e-04 0.0000e+00 1.0000e+00
<vert_displacement>
238.77096331595627
</vert_displacement>
</event>
<event>
 4   1200 +8.6263000e+09 1.87776700e-02 7.81665300e-03            nan
       50 -1    0    0    0    0 +4.6686755344e-03 +2.3312345342e-02 +2.5987175557e+01 2.5987186913e+01 4.9935713700e-03 0.0000e+00 0.0000e+00
       11 -1    0    0    0    0 -4.8367807665e-19 -2.4151754120e-18 -2.6922897080e-15 5.1100000000e-04 5.1099893000e-04 0.0000e+00 1.0000e+00
       50  1    1    2    0    0 -8.9255326685e-03 +3.5039616932e-02 +2.5662489093e+01 2.5662515053e+01 4.9935713700e-03 0.0000e+00 0.0000e+00
       11  1    1    2    0    0 +1.3594208203e-02 -1.1727271589e-02 +3.2468646397e-01 3.2518285994e-01 5.1099893000e-04 0.0000e+00 1.0000e+00
<vert_displacement>
243.68819362059423
</vert_displacement>
</event>
<event>
 4   1200 +8.6263000e+09 2.69977400e-02 7.81665300e-03            nan
       50 -1    0    0    0    0 +5.9582147876e-03 -1.0978269415e-02 +7.9496289301e+00 7.9496403116e+00 4.9935713700e-03 0.0000e+00 0.0000e+00
       11 -1    0    0    0    0 -2.0282599531e-19 +3.7371570180e-19 -2.7061652820e-16 5.1100000000e-04 5.1099893000e-04 0.0000e+00 1.0000e+00
       50  1    1    2    0    0 +1.9964872387e-02 +1.2242372926e-02 +7.1875312553e+00 7.1875711442e+00 4.9935713700e-03 0.0000e+00 0.0000e+00
       11  1    1    2    0    0 -1.4006657599e-02 -2.3220642341e-02 +7.6209767477e-01 7.6258016740e-01 5.1099893000e-04 0.0000e+00 1.0000e+00
<vert_displacement>
411.36810299723845
</vert_displacement>
</event>
<event>
 4   1200 +8.6263000e+09 9.66628800e-03 7.81665300e-03            nan
       50 -1    0    0    0    0 -1.3310842607e-01 +8.3833980573e-02 +4.0476384101e+01 4.0476690092e+01 4.9935713700e-03 0.0000e+00 0.0000e+00
       11 -1    0    0    0    0 -4.7006512078e-18 +2.9605511361e-18 +1.4294013492e-15 5.1100000000e-04 5.1099893000e-04 0.0000e+00 1.0000e+00
       50  1    1    2    0    0 -1.2541586592e-01 +8.7254936622e-02 +4.0409262759e+01 4.0409551893e+01 4.9935713700e-03 0.0000e+00 0.0000e+00
       11  1    1    2    0    0 -7.6925601532e-03 -3.4209560499e-03 +6.7121342231e-02 6.7649198996e-02 5.1099893000e-04 0.0000e+00 1.0000e+00
<vert_displacement>
140.82867463794489
</vert_displacement>
</event>
<event>
 4   1200 +8.6263000e+09 7.40494100e-03 7.81665300e-03            nan
       50 -1    0    0    0    0 -1.2907325519e-02 -1.6547124244e-02 +6.9313025225e+00 6.9313360906e+00 4.9935713700e-03 0.0000e+00 0.0000e+00
       11 -1    0    0    0    0 +5.1685611218e-20 +6.6260685006e-20 -2.7755448400e-17 5.1100000000e-04 5.1099893000e-04 0.0000e+00 1.0000e+00
       50  1    1    2    0    0 -9.8046138802e-03 -2.1016483570e-02 +6.9019165521e+00 6.9019573202e+00 4.9935713700e-03 0.0000e+00 0.0000e+00
       11  1    1    2    0    0 -3.1027116384e-03 +4.4693593259e-03 +2.9385970404e-02 2.9889770303e-02 5.1099893000e-04 0.0000e+00 1.0000e+00
<vert_displacement>
62.105269773266450
</vert_displacement>
</event>
<event>
 4   1200 +8.6263000e+09 1.52505300e-02 7.81665300e-03            nan
       50 -1    0    0    0    0 +2.3122852357e-02 +1.8915603422e-03 +1.2852185631e+01 1.2852207541e+01 4.9935713700e-03 0.0000e+00 0.0000e+00
       11 -1    0    0    0    0 -2.2471210145e-19 -1.8382528805e-20 -1.2489988677e-16 5.1100000000e-04 5.1099893000e-04 0.0000e+00 1.0000e+00
       50  1    1    2    0    0 +8.3542474452e-03 +1.2556824786e-03 +1.2645706358e+01 1.2645710166e+01 4.9935713700e-03 0.0000e+00 0.0000e+00
       11  1    1    2    0    0 +1.4768604912e-02 +6.3587786362e-04 +2.0647927287e-01 2.0700837490e-01 5.1099893000e-04 0.0000e+00 1.0000e+00
<vert_displacement>
190.03566769169728
</vert_displacement>
</event>
<event>
 4   1200 +8.6263000e+09 8.07044400e-03 7.81665300e-03            nan
       50 -1    0    0    0    0 +3.6746512724e-03 +3.1329880837e-02 +1.4848754631e+01 1.4848788977e+01 4.9935713700e-03 0.0000e+00 0.0000e+00
       11 -1    0    0    0    0 -3.6060742238e-20 -3.0745196578e-19 -1.4571644317e-16 5.1100000000e-04 5.1099893000e-04 0.0000e+00 1.0000e+00
       50  1    1    2    0    0 -2.0062314488e-03 +2.8412131966e-02 +1.4809324815e+01 1.4809353048e+01 4.9935713700e-03 0.0000e+00 0.0000e+00
       11  1    1    2    0    0 +5.6808827212e-03 +2.9177488716e-03 +3.9429815296e-02 3.9946929058e-02 5.1099893000e-04 0.0000e+00 1.0000e+00
<vert_displacement>
420.01875645761680
</vert_displacement>
</event>
<event>
 4   1200 +8.6263000e+09 1.75091000e-02 7.81665300e-03            nan
       50 -1    0    0    0    0 -1.5817001990e-01 +2.8114542427e-02 +4.5535881104e+01 4.5536164760e+01 4.9935713700e-03 0.0000e+00 0.0000e+00
       11 -1    0    0    0    0 +9.6891130313e-18 -1.7222289001e-18 -2.7894179901e-15 5.1100000000e-04 5.1099893000e-04 0.0000e+00 1.0000e+00
       50  1    1    2    0    0 -1.4445303016e-01 +1.7036128619e-02 +4.5258671540e+01 4.5258905548e+01 4.9935713700e-03 0.0000e+00 0.0000e+00
       11  1    1    2    0    0 -1.3716989734e-02 +1.1078413808e-02 +2.7720956434e-01 2.7777021212e-01 5.1099893000e-04 0.0000e+00 1.0000e+00
<vert_displacement>
91.643584817845422
</vert_displacement>
</event>
<event>
 4   1200 +8.6263000e+09 6.74040700e-03 7.81665300e-03            nan
       50 -1    0    0    0    0 +4.0847737583e-02 -3.2279790860e-02 +1.3350151733e+01 1.3350254183e+01 4.9935713700e-03 0.0000e+00 0.0000e+00
       11 -1    0    0    0    0 +1.6560115181e-18 -1.3086576792e-18 +5.4122960893e-16 5.1100000000e-04 5.1099893000e-04 0.0000e+00 1.0000e+00
       50  1    1    2    0    0 +3.8357675725e-02 -2.8410365426e-02 +1.3330081417e+01 1.3330167815e+01 4.9935713700e-03 0.0000e+00 0.0000e+00
       11  1    1    2    0    0 +2.4900618577e-03 -3.8694254344e-03 +2.0070315999e-02 2.0597367925e-02 5.1099893000e-04 0.0000e+00 1.0000e+00
<vert_displacement>
415.10727747142749
</vert_displacement>
</event>
<event>
 4   1200 +8.6263000e+09 6.28167000e-03 7.81665300e-03            nan
       50 -1    0    0    0    0 +3.9631536919e-02 -1.2191004469e-02 +1.1593125879e+01 1.1593201105e+01 4.9935713700e-03 0.0000e+00 0.0000e+00
       11 -1    0    0    0    0 +8.0650441587e-19 -2.4808775290e-19 +2.3592088376e-16 5.1100000000e-04 5.1099893000e-04 0.0000e+00 1.0000e+00
       50  1    1    2    0    0 +3.9417517762e-02 -8.3686472966e-03 +1.1578901431e+01 1.1578972625e+01 4.9935713700e-03 0.0000e+00 0.0000e+00
       11  1    1    2    0    0 +2.1401915670e-04 -3.8223571725e-03 +1.4224447657e-02 1.4739479286e-02 5.1099893000e-04 0.0000e+00 1.0000e+00
<vert_displacement>
486.30539681526085
</vert_displacement>
</event>
<event>
 4   1200 +8.6263000e+09 2.77212400e-02 7.81665300e-03            nan
       50 -1    0    0    0    0 -9.3380901145e-03 -5.6437070194e-02 +2.3091633528e+01 2.3091704924e+01 4.9935713700e-03 0.0000e+00 0.0000e+00
       11 -1    0    0    0    0 -1.4310753291e-18 -8.6490596912e-18 +3.5388250323e-15 5.1100000000e-04 5.1099893000e-04 0.0000e+00 1.0000e+00
       50  1    1    2    0    0 -1.2393394237e-02 -2.7539046519e-02 +2.2339639797e+01 2.2339660768e+01 4.9935713700e-03 0.0000e+00 0.0000e+00
       11  1    1    2    0    0 +3.0553041223e-03 -2.8898023676e-02 +7.5199373076e-01 7.5255515604e-01 5.1099893000e-04 0.0000e+00 1.0000e+00
<vert_displacement>
78.111746679665316
</vert_displacement>
</event>
<event>
 4   1200 +8.6263000e+09 1.56799100e-02 7.81665300e-03            nan
       50 -1    0    0    0    0 -1.5492322455e-03 +3.5221926909e-03 +7.4870743232e+00 7.4870769772e+00 4.9935713700e-03 0.0000e+00 0.0000e+00
       11 -1    0    0    0    0 +1.1917157129e-19 -2.7093758123e-19 -5.7592811797e-16 5.1100000000e-04 5.1099893000e-04 0.0000e+00 1.0000e+00
       50  1    1    2    0    0 -3.4499165489e-03 -1.1318093911e-02 +7.2642444328e+00 7.2642557855e+00 4.9935713700e-03 0.0000e+00 0.0000e+00
       11  1    1    2    0    0 +1.9006843034e-03 +1.4840286602e-02 +2.2282989034e-01 2.2333219172e-01 5.1099893000e-04 0.0000e+00 1.0000e+00
<vert_displacement>
437.18069604883374
</vert_displacement>
</event>
<event>
 4   1200 +8.6263000e+09 9.42455000e-03 7.81665300e-03            nan
       50 -1    0    0    0    0 +4.6673553770e-02 -1.6775211874e-02 +2.0056344826e+01 2.0056406771e+01 4.9935713700e-03 0.0000e+00 0.0000e+00
       11 -1    0    0    0    0 +1.0334464440e-18 -3.7143696287e-19 +4.4408785204e-16 5.1100000000e-04 5.1099893000e-04 0.0000e+00 1.0000e+00
       50  1    1    2    0    0 +5.4377347109e-02 -1.5216797145e-02 +1.9993618964e+01 1.9993699324e+01 4.9935713700e-03 0.0000e+00 0.0000e+00
       11  1    1    2    0    0 -7.7037933385e-03 -1.5584147293e-03 +6.2725861895e-02 6.3218446348e-02 5.1099893000e-04 0.0000e+00 1.0000e+00
<vert_displacement>
102.65770649898330
</vert_displacement>
</event>
<event>
 4   1200 +8.6263000e+09 1.45821900e-02 7.81665300e-03            nan
       50 -1    0    0    0    0 -4.8290957989e-02 -5.9583866642e-02 +3.1460800672e+01 3.1460894554e+01 4.9935713700e-03 0.0000e+00 0.0000e+00
       11 -1    0    0    0    0 +2.2579840374e-18 +2.7860167900e-18 -1.4710411365e-15 5.1100000000e-04 5.1099893000e-04 0.0000e+00 1.0000e+00
       50  1    1    2    0    0 -5.3806648468e-02 -7.1646526429e-02 +3.1276016263e+01 3.1276145009e+01 4.9935713700e-03 0.0000e+00 0.0000e+00
       11  1    1    2    0    0 +5.5156904791e-03 +1.2062659787e-02 +1.8478440888e-01 1.8526054488e-01 5.1099893000e-04 0.0000e+00 1.0000e+00
<vert_displacement>
175.29234223764490
</vert_displacement>
</event>
<event>
 4   1200 +8.6263000e+09 5.74661200e-03 7.81665300e-03            nan
       50 -1    0    0    0    0 +1.8022291620e-02 +1.3659427632e-02 +7.5549673511e+00 7.5550028455e+00 4.9935713700e-03 0.0000e+00 0.0000e+00
       11 -1    0    0    0    0 -1.2579961582e-18 -9.5345851940e-19 -5.2735357430e-16 5.1100000000e-04 5.1099893000e-04 0.0000e+00 1.0000e+00
       50  1    1    2    0    0 +1.8282660297e-02 +1.6475257296e-02 +7.5470390407e+00 7.5470808202e+00 4.9935713700e-03 0.0000e+00 0.0000e+00
       11  1    1    2    0    0 -2.6036867698e-04 -2.8158296638e-03 +7.9283104536e-03 8.4330252637e-03 5.1099893000e-04 0.0000e+00 1.0000e+00
<vert_displacement>
297.85149607380708
</vert_displacement>
</event>
<event>
 4   1200 +8.6263000e+09 2.86132600e-02 7.81665300e-03            nan
       50 -1    0    0    0    0 -2.2382029002e-02 +5.1924472877e-03 +1.1437477709e+01 1.1437501877e+01 4.9935713700e-03 0.0000e+00 0.0000e+00
       11 -1    0    0    0    0 -1.0727182163e-18 +2.4886183429e-19 +5.4817151232e-16 5.1100000000e-04 5.1099893000e-04 0.0000e+00 1.0000e+00
       50  1    1    2    0    0 -1.2611643323e-02 +3.1787547459e-02 +1.0599180565e+01 1.0599236911e+01 4.9935713700e-03 0.0000e+00 0.0000e+00
       11  1    1    2    0    0 -9.7703856796e-03 -2.6595100171e-02 +8.3829714379e-01 8.3877596663e-01 5.1099893000e-04 0.0000e+00 1.0000e+00
<vert_displacement>
176.97615868587877
</vert_displacement>
</event>
<event>
 4   1200 +8.6263000e+09 5.11957900e-03 7.81665300e-03            nan
       50 -1    0    0    0    0 +2.3722811750e-03 -7.3458026495e-03 +3.8154998843e+00 3.8155109607e+00 4.9935713700e-03 0.0000e+00 0.0000e+00
       11 -1    0    0    0    0 +2.6532562258e-19 -8.2158459200e-19 +4.2674110173e-16 5.1100000000e-04 5.1099893000e-04 0.0000e+00 1.0000e+00
       50  1    1    2    0    0 +2.7085223289e-03 -8.4207798337e-03 +3.8142501266e+00 3.8142636524e+00 4.9935713700e-03 0.0000e+00 0.0000e+00
       11  1    1    2    0    0 -3.3624115389e-04 +1.0749771842e-03 +1.2497576533e-03 1.7583083230e-03 5.1099893000e-04 0.0000e+00 1.0000e+00
<vert_displacement>
216.89735039262925
</vert_displacement>
</event>
<event>
 4   1200 +8.6263000e+09 1.05371600e-02 7.81665300e-03            nan
       50 -1    0    0    0    0 +4.7778039726e-03 +7.9738589373e-03 +6.5758586128e+00 6.5758670791e+00 4.9935713700e-03 0.0000e+00 0.0000e+00
       11 -1    0    0    0    0 -4.5374116626e-20 -7.5726590596e-20 -6.2449982739e-17 5.1100000000e-04 5.1099893000e-04 0.0000e+00 1.0000e+00
       50  1    1    2    0    0 -4.4053961956e-03 +6.1674231098e-03 +6.4905060630e+00 6.4905124092e+00 4.9935713700e-03 0.0000e+00 0.0000e+00
       11  1    1    2    0    0 +9.1832001682e-03 +1.8064358274e-03 +8.5352549851e-02 8.5865669867e-02 5.1099893000e-04 0.0000e+00 1.0000e+00
<vert_displacement>
302.10891748680535
</vert_displacement>
</event>
<event>
 4   1200 +8.6263000e+09 8.34744000e-03 7.81665300e-03            nan
       50 -1    0    0    0    0 +2.9793903807e-02 -2.4281016337e-02 +1.6684083870e+01 1.6684128888e+01 4.9935713700e-03 0.0000e+00 0.0000e+00
       11 -1    0    0    0    0 -2.5773741989e-18 +2.1004721447e-18 -1.4432861023e-15 5.1100000000e-04 5.1099893000e-04 0.0000e+00 -1.0000e+00
       50  1    1    2    0    0 +2.3050319188e-02 -2.4781988297e-02 +1.6640197244e+01 1.6640232411e+01 4.9935713700e-03 0.0000e+00 0.0000e+00
       11  1    1    2    0    0 +6.7435846193e-03 +5.0097195943e-04 +4.3886626010e-02 4.4407476498e-02 5.1099893000e-04 0.0000e+00 -1.0000e+00
<vert_displacement>
236.75973952258499
</vert_displacement>
</event>
<event>
 4   1200 +8.6263000e+09 1.66768400e-02 7.81665300e-03            nan
       50 -1    0    0    0    0 +4.8175969177e-03 +1.8044818757e-02 +9.3712703242e+00 9.3712902660e+00 4.9935713700e-03 0.0000e+00 0.0000e+00
       11 -1    0    0    0    0 +3.6028215601e-19 +1.3494749182e-18 +7.0082689245e-16 5.1100000000e-04 5.1099893000e-04 0.0000e+00 1.0000e+00
       50  1    1    2    0    0 +1.9937703867e-02 +1.3017094436e-02 +9.1165875328e+00 9.1166199951e+00 4.9935713700e-03 0.0000e+00 0.0000e+00
       11  1    1    2    0    0 -1.5120106949e-02 +5.0277243211e-03 +2.5468279136e-01 2.5518127082e-01 5.1099893000e-04 0.0000e+00 1.0000e+00
<vert_displacement>
177.99797241745625
</vert_displacement>
</event>
<event>
 4   1200 +8.6263000e+09 2.20592600e-02 7.81665300e-03            nan
       50 -1    0    0    0    0 +7.1725418182e-03 +5.8543268922e-03 +2.4613709065e+00 2.4613933846e+00 4.9935713700e-03 0.0000e+00 0.0000e+00
       11 -1    0    0    0    0 +4.8528229025e-19 +3.9609405343e-19 +1.6653227558e-16 5.1100000000e-04 5.1099893000e-04 0.0000e+00 1.0000e+00
       50  1    1    2    0    0 -1.5183583317e-02 +1.0502608683e-02 +1.8623558359e+00 1.8624540373e+00 4.9935713700e-03 0.0000e+00 0.0000e+00
       11  1    1    2    0    0 +2.2356125136e-02 -4.6482817910e-03 +5.9901507064e-01 5.9945034725e-01 5.1099893000e-04 0.0000e+00 1.0000e+00
<vert_displacement>
434.42511921642165
</vert_displacement>
</event>
<event>
 4   1200 +8.6263000e+09 1.05923300e-02 7.81665300e-03            nan
       50 -1    0    0    0    0 -5.9022731638e-03 +1.2728090669e-02 +1.5339226064e+01 1.5339233293e+01 4.9935713700e-03 0.0000e+00 0.0000e+00
       11 -1    0    0    0    0 -6.4613205734e-19 +1.3933661120e-18 +1.6792116223e-15 5.1100000000e-04 5.1099893000e-04 0.0000e+00 1.0000e+00
       50  1    1    2    0    0 -1.2562302889e-02 +6.1403525521e-03 +1.5253361278e+01 1.5253368505e+01 4.9935713700e-03 0.0000e+00 0.0000e+00
       11  1    1    2    0    0 +6.6600297252e-03 +6.5877381169e-03 +8.5864785738e-02 8.6375788501e-02 5.1099893000e-04 0.0000e+00 1.0000e+00
<vert_displacement>
336.11982219269919
</vert_displacement>
</event>
<event>
 4   1200 +8.6263000e+09 1.17658700e-02 7.81665300e-03            nan
       50 -1    0    0    0    0 +1.8279063576e-03 +1.6846819189e-03 +2.7841739777e+00 2.7841795656e+00 4.9935713700e-03 0.0000e+00 0.0000e+00
       11 -1    0    0    0    0 -9.3390243646e-20 -8.6072710572e-20 -1.4224726833e-16 5.1100000000e-04 5.1099893000e-04 0.0000e+00 1.0000e+00
       50  1    1    2    0    0 +1.9115304387e-03 -9.0379113182e-03 +2.6682325942e+00 2.6682532583e+00 4.9935713700e-03 0.0000e+00 0.0000e+00
       11  1    1    2    0    0 -8.3624081149e-05 +1.0722593237e-02 +1.1594138353e-01 1.1643730731e-01 5.1099893000e-04 0.0000e+00 1.0000e+00
<vert_displacement>
357.56056851571532
</vert_displacement>
</event>
<event>
 4   1200 +8.6263000e+09 1.51616800e-02 7.81665300e-03            nan
       50 -1    0    0    0    0 +9.0157370640e-03 -1.3366013683e-02 +6.3296390924e+00 6.3296615952e+00 4.9935713700e-03 0.0000e+00 0.0000e+00
       11 -1    0    0    0    0 +2.7673823023e-19 -4.1027005840e-19 +1.9428839905e-16 5.1100000000e-04 5.1099893000e-04 0.0000e+00 1.0000e+00
       50  1    1    2    0    0 +1.4004348037e-02 -2.6232990072e-02 +6.1222392874e+00 6.1223135431e+00 4.9935713700e-03 0.0000e+00 0.0000e+00
       11  1    1    2    0    0 -4.9886109728e-03 +1.2866976390e-02 +2.0739980499e-01 2.0785905213e-01 5.1099893000e-04 0.0000e+00 1.0000e+00
<vert_displacement>
11.287886945017716
</vert_displacement>
</event>
<event>
 4   1200 +8.6263000e+09 5.52170900e-03 7.81665300e-03            nan
       50 -1    0    0    0    0 -3.2045556253e-02 +3.3204614760e-02 +1.4642404900e+01 1.4642478467e+01 4.9935713700e-03 0.0000e+00 0.0000e+00
       11 -1    0    0    0    0 -1.6704603746e-19 +1.7308794010e-19 +7.6327453894e-17 5.1100000000e-04 5.1099893000e-04 0.0000e+00 1.0000e+00
       50  1    1    2    0    0 -3.3878688995e-02 +3.1726210844e-02 +1.4636968034e+01 1.4637042478e+01 4.9935713700e-03 0.0000e+00 0.0000e+00
       11  1    1    2    0    0 +1.8331327423e-03 +1.4784039157e-03 +5.4368655108e-03 5.9469891776e-03 5.1099893000e-04 0.0000e+00 1.0000e+00
<vert_displacement>
63.663411392370335
</vert_displacement>
</event>
<event>
 4   1200 +8.6263000e+09 2.46231100e-02 7.81665300e-03            nan
       50 -1    0    0    0    0 -1.1951468723e-01 +1.4936877525e-02 +4.2687278493e+01 4.2687448705e+01 4.9935713700e-03 0.0000e+00 0.0000e+00
       11 -1    0    0    0    0 -4.3128495128e-18 +5.3901747517e-19 +1.5404283149e-15 5.1100000000e-04 5.1099893000e-04 0.0000e+00 1.0000e+00
       50  1    1    2    0    0 -1.3484932322e-01 +3.1884055348e-02 +4.2110579091e+01 4.2110807369e+01 4.9935713700e-03 0.0000e+00 0.0000e+00
       11  1    1    2    0    0 +1.5334635985e-02 -1.6947177823e-02 +5.7669940185e-01 5.7715233614e-01 5.1099893000e-04 0.0000e+00 1.0000e+00
<vert_displacement>
459.69290730616473
</vert_displacement>
</event>
<event>
 4   1200 +8.6263000e+09 7.63570400e-03 7.81665300e-03            nan
       50 -1    0    0    0    0 +4.5467524406e-02 +1.7480261082e-03 +1.3112559991e+01 1.3112639887e+01 4.9935713700e-03 0.0000e+00 0.0000e+00
       11 -1    0    0    0    0 +8.4211130434e-19 +3.2375471618e-20 +2.4285982448e-16 5.1100000000e-04 5.1099893000e-04 0.0000e+00 1.0000e+00
       50  1    1    2    0    0 +5.0360456714e-02 -1.1379282895e-03 +1.3079810152e+01 1.3079908104e+01 4.9935713700e-03 0.0000e+00 0.0000e+00
       11  1    1    2    0    0 -4.8929323075e-03 +2.8859543977e-03 +3.2749839038e-02 3.3242782619e-02 5.1099893000e-04 0.0000e+00 1.0000e+00
<vert_displacement>
103.33416862864240
</vert_displacement>
</event>
<event>
 4   1200 +8.6263000e+09 2.30866200e-02 7.81665300e-03            nan
       50 -1    0    0    0    0 -3.7536477211e-03 -1.5494599622e-03 +2.3362328435e+00 2.3362417096e+00 4.9935713700e-03 0.0000e+00 0.0000e+00
       11 -1    0    0    0    0 +2.4527295227e-19 +1.0124568089e-19 -1.5265543527e-16 5.1100000000e-04 5.1099893000e-04 0.0000e+00 1.0000e+00
       50  1    1    2    0    0 -1.7967016144e-02 +1.5411671038e-02 +1.6124462146e+00 1.6126276893e+00 4.9935713700e-03 0.0000e+00 0.0000e+00
       11  1    1    2    0    0 +1.4213368423e-02 -1.6961131000e-02 +7.2378662886e-01 7.2412502031e-01 5.1099893000e-04 0.0000e+00 1.0000e+00
<vert_displacement>
495.15918194696337
</vert_displacement>
</event>
<event>
 4   1200 +8.6263000e+09 7.72684200e-03 7.81665300e-03            nan
       50 -1    0    0    0    0 +5.3685063468e-03 +8.1377594627e-02 +3.1181734725e+01 3.1181841776e+01 4.9935713700e-03 0.0000e+00 0.0000e+00
       11 -1    0    0    0    0 -2.6760238419e-19 -4.0564054385e-18 -1.5543069183e-15 5.1100000000e-04 5.1099893000e-04 0.0000e+00 -1.0000e+00
       50  1    1    2    0    0 -5.1788129262e-04 +8.0855388064e-02 +3.1147679302e+01 3.1147784651e+01 4.9935713700e-03 0.0000e+00 0.0000e+00
       11  1    1    2    0    0 +5.8863876394e-03 +5.2220656268e-04 +3.4055423434e-02 3.4568124686e-02 5.1099893000e-04 0.0000e+00 -1.0000e+00
<vert_displacement>
41.024994131677168
</vert_displacement>
</event>
<event>
 4   1200 +8.6263000e+09 6.70363200e-03 7.81665300e-03            nan
       50 -1    0    0    0    0 +6.4044298447e-02 +1.1490088075e-02 +2.1846077102e+01 2.1846174571e+01 4.9935713700e-03 0.0000e+00 0.0000e+00
       11 -1    0    0    0    0 -4.4752573267e-18 -8.0289896352e-19 -1.5265498879e-15 5.1100000000e-04 5.1099893000e-04 0.0000e+00 1.0000e+00
       50  1    1    2    0    0 +6.3297120331e-02 +1.5898740583e-02 +2.1826486510e+01 2.1826584653e+01 4.9935713700e-03 0.0000e+00 0.0000e+00
       11  1    1    2    0    0 +7.4717811512e-04 -4.4086525078e-03 +1.9590592422e-02 2.0100918472e-02 5.1099893000e-04 0.0000e+00 1.0000e+00
<vert_displacement>
234.61730533900280
</vert_displacement>
</event>
<event>
 4   1200 +8.6263000e+09 1.00101300e-02 7.81665300e-03            nan
       50 -1    0    0    0    0 +4.7520647089e-03 +5.3341990169e-03 +1.9194806355e+01 1.9194808334e+01 4.9935713700e-03 0.0000e+00 0.0000e+00
       11 -1    0    0    0    0 -6.3217402354e-19 -7.0961619032e-19 -2.5535127798e-15 5.1100000000e-04 5.1099893000e-04 0.0000e+00 1.0000e+00
       50  1    1    2    0    0 +1.1400917882e-02 -2.3755115015e-04 +1.9120872534e+01 1.9120876586e+01 4.9935713700e-03 0.0000e+00 0.0000e+00
       11  1    1    2    0    0 -6.6488531735e-03 +5.5717501670e-03 +7.3933821324e-02 7.4442747827e-02 5.1099893000e-04 0.0000e+00 1.0000e+00
<vert_displacement>
59.357777623673378
</vert_displacement>
</event>
<event>
 4   1200 +8.6263000e+09 1.74714000e-02 7.81665300e-03            nan
       50 -1    0    0    0    0 +3.4527331585e-02 +9.3272141342e-03 +1.0889434027e+01 1.0889493905e+01 4.9935713700e-03 0.0000e+00 0.0000e+00
       11 -1    0    0    0    0 +1.5400813165e-19 +4.1603760162e-20 +4.8571995352e-17 5.1100000000e-04 5.1099893000e-04 0.0000e+00 1.0000e+00
       50  1    1    2    0    0 +4.1308080439e-02 -5.7945046528e-03 +1.0607833260e+01 1.0607916447e+01 4.9935713700e-03 0.0000e+00 0.0000e+00
       11  1    1    2    0    0 -6.7807488535e-03 +1.5121718787e-02 +2.8160076763e-01 2.8208845843e-01 5.1099893000e-04 0.0000e+00 1.0000e+00
<vert_displacement>
9.1589456812118009
</vert_displacement>
</event>
<event>
 4   1200 +8.6263000e+09 1.35153200e-02 7.81665300e-03            nan
       50 -1    0    0    0    0 +5.1441688375e-02 +1.3555660027e-03 +1.5188355437e+01 1.5188443432e+01 4.9935713700e-03 0.0000e+00 0.0000e+00
       11 -1    0    0    0    0 +1.8801054302e-19 +4.9543611090e-21 +5.5510832623e-17 5.1100000000e-04 5.1099893000e-04 0.0000e+00 1.0000e+00
       50  1    1    2    0    0 +6.2546923812e-02 -3.3902516578e-03 +1.5032375605e+01 1.5032506939e+01 4.9935713700e-03 0.0000e+00 0.0000e+00
       11  1    1    2    0    0 -1.1105235437e-02 +4.7458176605e-03 +1.5597983174e-01 1.5644749301e-01 5.1099893000e-04 0.0000e+00 1.0000e+00
<vert_displacement>
116.45903970228375
</vert_displacement>
</event>
<event>
 4   1200 +8.6263000e+09 3.13250200e-02 7.81665300e-03            nan
       50 -1    0    0    0    0 -4.6257405780e-02 +1.5405744109e-02 +2.1803744352e+01 2.1803799435e+01 4.9935713700e-03 0.0000e+00 0.0000e+00
       11 -1    0    0    0    0 -2.8264452784e-18 +9.4133019273e-19 +1.3322642988e-15 5.1100000000e-04 5.1099893000e-04 0.0000e+00 1.0000e+00
       50  1    1    2    0    0 -6.4059642431e-02 -8.9734210057e-03 +2.0823882631e+01 2.0823983695e+01 4.9935713700e-03 0.0000e+00 0.0000e+00
       11  1    1    2    0    0 +1.7802236650e-02 +2.4379165115e-02 +9.7986172096e-01 9.8032673974e-01 5.1099893000e-04 0.0000e+00 1.0000e+00
<vert_displacement>
327.62364994732127
</vert_displacement>
</event>
<event>
 4   1200 +8.6263000e+09 8.45875300e-03 7.81665300e-03            nan
       50 -1    0    0    0    0 +1.9825235677e-02 -1.7372409007e-02 +7.4183768702e+00 7.4184253831e+00 4.9935713700e-03 0.0000e+00 0.0000e+00
       11 -1    0    0    0    0 -3.0597145786e-18 +2.6811592037e-18 -1.1449102663e-15 5.1100000000e-04 5.1099893000e-04 0.0000e+00 1.0000e+00
       50  1    1    2    0    0 +1.3489402724e-02 -1.4434598738e-02 +7.3725010245e+00 7.3725291870e+00 4.9935713700e-03 0.0000e+00 0.0000e+00
       11  1    1    2    0    0 +6.3358329533e-03 -2.9378102687e-03 +4.5875845674e-02 4.6407196043e-02 5.1099893000e-04 0.0000e+00 1.0000e+00
<vert_displacement>
161.09381986158161
</vert_displacement>
</event>
<event>
 4   1200 +8.6263000e+09 9.79920600e-03 7.81665300e-03            nan
       50 -1    0    0    0    0 +4.0604044293e-02 +2.0650448728e-02 +1.3219784000e+01 1.3219863429e+01 4.9935713700e-03 0.0000e+00 0.0000e+00
       11 -1    0    0    0    0 +2.0886163726e-18 +1.0622307720e-18 +6.8000756540e-16 5.1100000000e-04 5.1099893000e-04 0.0000e+00 1.0000e+00
       50  1    1    2    0    0 +4.2732696482e-02 +1.2442017022e-02 +1.3149858171e+01 1.3149934439e+01 4.9935713700e-03 0.0000e+00 0.0000e+00
       11  1    1    2    0    0 -2.1286521885e-03 +8.2084317062e-03 +6.9925829249e-02 7.0439990256e-02 5.1099893000e-04 0.0000e+00 1.0000e+00
<vert_displacement>
380.08578768754512
</vert_displacement>
</event>
<event>
 4   1200 +8.6263000e+09 8.58305600e-03 7.81665300e-03            nan
       50 -1    0    0    0    0 -1.0658742168e-02 -9.6433739671e-03 +6.2248745683e+00 6.2248931662e+00 4.9935713700e-03 0.0000e+00 0.0000e+00
       11 -1    0    0    0    0 -5.9406565601e-20 -5.3747404636e-20 +3.4694377027e-17 5.1100000000e-04 5.1099893000e-04 0.0000e+00 1.0000e+00
       50  1    1    2    0    0 -1.4163907745e-02 -3.5803286934e-03 +6.1768173531e+00 6.1768366487e+00 4.9935713700e-03 0.0000e+00 0.0000e+00
       11  1    1    2    0    0 +3.5051655772e-03 -6.0630452737e-03 +4.8057215148e-02 4.8567517452e-02 5.1099893000e-04 0.0000e+00 1.0000e+00
<vert_displacement>
17.719606610253827
</vert_displacement>
</event>
<event>
 4   1200 +8.6263000e+09 1.30160400e-02 7.81665300e-03            nan
       50 -1    0    0    0    0 -1.5114009532e-02 +2.4898982535e-02 +1.2201356953e+01 1.2201392741e+01 4.9935713700e-03 0.0000e+00 0.0000e+00
       11 -1    0    0    0    0 -7.9936203379e-19 +1.3168776476e-18 +6.4531529432e-16 5.1100000000e-04 5.1099893000e-04 0.0000e+00 1.0000e+00
       50  1    1    2    0    0 -2.2286818162e-02 +3.4117993487e-02 +1.2058270829e+01 1.2058340726e+01 4.9935713700e-03 0.0000e+00 0.0000e+00
       11  1    1    2    0    0 +7.1728086306e-03 -9.2190109518e-03 +1.4308612414e-01 1.4356301539e-01 5.1099893000e-04 0.0000e+00 1.0000e+00
<vert_displacement>
450.26856809006495
</vert_displacement>
</event>
<event>
 4   1200 +8.6263000e+09 2.14583000e-02 7.81665300e-03            nan
       50 -1    0    0    0    0 -6.9060616998e-02 +2.5191969051e-02 +2.5569376573e+01 2.5569482733e+01 4.9935713700e-03 0.0000e+00 0.0000e+00
       11 -1    0    0    0    0 +3.9731469496e-18 -1.4493266835e-18 -1.4710394281e-15 5.1100000000e-04 5.1099893000e-04 0.0000e+00 1.0000e+00
       50  1    1    2    0    0 -8.6893585692e-02 +3.3388845257e-02 +2.5135805565e+01 2.5135978431e+01 4.9935713700e-03 0.0000e+00 0.0000e+00
       11  1    1    2    0    0 +1.7832968694e-02 -8.1968762062e-03 +4.3357100735e-01 4.3401530283e-01 5.1099893000e-04 0.0000e+00 1.0000e+00
<vert_displacement>
68.263537178171944
</vert_displacement>
</event>
<event>
 4   1200 +8.6263000e+09 2.27117900e-02 7.81665300e-03            nan
       50 -1    0    0    0    0 -5.9605579408e-02 +5.6927068030e-02 +2.2955825011e+01 2.2955973523e+01 4.9935713700e-03 0.0000e+00 0.0000e+00
       11 -1    0    0    0    0 -2.6665097232e-18 +2.5466840843e-18 +1.0269496783e-15 5.1100000000e-04 5.1099893000e-04 0.0000e+00 1.0000e+00
       50  1    1    2    0    0 -7.9175453395e-02 +4.8199758314e-02 +2.2464953230e+01 2.2465145015e+01 4.9935713700e-03 0.0000e+00 0.0000e+00
       11  1    1    2    0    0 +1.9569873986e-02 +8.7273097159e-03 +4.9087178103e-01 4.9133950831e-01 5.1099893000e-04 0.0000e+00 1.0000e+00
<vert_displacement>
210.62985229129018
</vert_displacement>
</event>
<event>
 4   1200 +8.6263000e+09 1.07081500e-02 7.81665300e-03            nan
       50 -1    0    0    0    0 +2.1010426137e-02 +6.6830458644e-03 +8.8899380559e+00 8.8899667983e+00 4.9935713700e-03 0.0000e+00 0.0000e+00
       11 -1    0    0    0    0 -4.9197869063e-19 -1.5648974144e-19 -2.0816617693e-16 5.1100000000e-04 5.1099893000e-04 0.0000e+00 1.0000e+00
       50  1    1    2    0    0 +3.0133996803e-02 +8.2350020870e-03 +8.8012256185e+00 8.8012824746e+00 4.9935713700e-03 0.0000e+00 0.0000e+00
       11  1    1    2    0    0 -9.1235706661e-03 -1.5519562226e-03 +8.8712437383e-02 8.9195323735e-02 5.1099893000e-04 0.0000e+00 1.0000e+00
<vert_displacement>
175.21822694424074
</vert_displacement>
</event>
<event>
 4   1200 +8.6263000e+09 2.09840900e-02 7.81665300e-03            nan
       50 -1    0    0    0    0 -5.5765867476e-03 +1.2967692522e-03 +1.7496893887e+00 1.7497058818e+00 4.9935713700e-03 0.0000e+00 0.0000e+00
       11 -1    0    0    0    0 -7.7404011855e-20 +1.7999386921e-20 +2.4285998643e-17 5.1100000000e-04 5.1099893000e-04 0.0000e+00 1.0000e+00
       50  1    1    2    0    0 +1.6888945327e-02 +3.4554863656e-04 +1.0941072423e+00 1.0942490344e+00 4.9935713700e-03 0.0000e+00 0.0000e+00
       11  1    1    2    0    0 -2.2465532074e-02 +9.5122061564e-04 +6.5558214642e-01 6.5596784736e-01 5.1099893000e-04 0.0000e+00 1.0000e+00
<vert_displacement>
446.93932795772218
</vert_displacement>
</event>
<event>
 4   1200 +8.6263000e+09 1.06900200e-02 7.81665300e-03            nan
       50 -1    0    0    0    0 -6.7098133875e-03 -1.0779033198e-02 +1.3016220946e+01 1.3016228096e+01 4.9935713700e-03 0.0000e+00 0.0000e+00
       11 -1    0    0    0    0 -8.3701150536e-19 -1.3446238043e-18 +1.6237004010e-15 5.1100000000e-04 5.1099893000e-04 0.0000e+00 1.0000e+00
       50  1    1    2    0    0 -1.5788731330e-02 -8.2387348745e-03 +1.2928200997e+01 1.2928214228e+01 4.9935713700e-03 0.0000e+00 0.0000e+00
       11  1    1    2    0    0 +9.0789179421e-03 -2.5402983233e-03 +8.8019948990e-02 8.8524868860e-02 5.1099893000e-04 0.0000e+00 1.0000e+00
<vert_displacement>
330.20366046857157
</vert_displacement>
</event>
<event>
 4   1200 +8.6263000e+09 6.19211900e-03 7.81665300e-03            nan
       50 -1    0    0    0    0 -4.3380482045e-03 +3.8187727189e-03 +2.4808183881e+00 2.4808301457e+00 4.9935713700e-03 0.0000e+00 0.0000e+00
       11 -1    0    0    0    0 -3.0333915920e-20 +2.6702868458e-20 +1.7347187686e-17 5.1100000000e-04 5.1099893000e-04 0.0000e+00 1.0000e+00
       50  1    1    2    0    0 -5.9273924456e-03 +5.1111111806e-04 +2.4676291229e+00 2.4676413473e+00 4.9935713700e-03 0.0000e+00 0.0000e+00
       11  1    1    2    0    0 +1.5893442411e-03 +3.3076616008e-03 +1.3189265187e-02 1.3699798410e-02 5.1099893000e-04 0.0000e+00 1.0000e+00
<vert_displacement>
196.40142867074115
</vert_displacement>
</event>
<event>
 4   1200 +8.6263000e+09 5.19572500e-03 7.81665300e-03            nan
       50 -1    0    0    0    0 +2.8521067467e-02 -3.6915964850e-02 +2.1941164369e+01 2.1941214530e+01 4.9935713700e-03 0.0000e+00 0.0000e+00
       11 -1    0    0    0    0 -2.5255350606e-19 +3.2689016157e-19 -1.9428859017e-16 5.1100000000e-04 5.1099893000e-04 0.0000e+00 1.0000e+00
       50  1    1    2    0    0 +2.9566561033e-02 -3.7893005441e-02 +2.1939145672e+01 2.1939198887e+01 4.9935713700e-03 0.0000e+00 0.0000e+00
       11  1    1    2    0    0 -1.0454935661e-03 +9.7704059093e-04 +2.0186969987e-03 2.5266425533e-03 5.1099893000e-04 0.0000e+00 1.0000e+00
<vert_displacement>
296.57398142096332
</vert_displacement>
</event>
<event>
 4   1200 +8.6263000e+09 4.57742100e-02 7.81665300e-03            nan
       50 -1    0    0    0    0 +1.5329772370e-01 -6.1566201995e-02 +5.0179826517e+01 5.0180098693e+01 4.9935713700e-03 0.0000e+00 0.0000e+00
       11 -1    0    0    0    0 -1.0217425565e-17 +4.1034404883e-18 -3.3445287375e-15 5.1100000000e-04 5.1099893000e-04 0.0000e+00 1.0000e+00
       50  1    1    2    0    0 +1.9035857621e-01 -4.5698671989e-02 +4.8064740435e+01 4.8065139371e+01 4.9935713700e-03 0.0000e+00 0.0000e+00
       11  1    1    2    0    0 -3.7060852517e-02 -1.5867530006e-02 +2.1150860826e+00 2.1154703220e+00 5.1099893000e-04 0.0000e+00 1.0000e+00
<vert_displacement>
487.58300120608794
</vert_displacement>
</event>
<event>
 4   1200 +8.6263000e+09 2.56880900e-02 7.81665300e-03            nan
       50 -1    0    0    0    0 +1.8881642793e-02 -2.2829372809e-02 +1.1115534135e+01 1.1115574738e+01 4.9935713700e-03 0.0000e+00 0.0000e+00
       11 -1    0    0    0    0 -1.5676524523e-18 +1.8954135856e-18 -9.2286961134e-16 5.1100000000e-04 5.1099893000e-04 0.0000e+00 1.0000e+00
       50  1    1    2    0    0 +5.4450578234e-03 -4.3456555264e-02 +1.0454858206e+01 1.0454951132e+01 4.9935713700e-03 0.0000e+00 0.0000e+00
       11  1    1    2    0    0 +1.3436584970e-02 +2.0627182455e-02 +6.6067592930e-01 6.6113460593e-01 5.1099893000e-04 0.0000e+00 1.0000e+00
<vert_displacement>
172.83237272700475
</vert_displacement>
</event>
<event>
 4   1200 +8.6263000e+09 1.30768300e-02 7.81665300e-03            nan
       50 -1    0    0    0    0 -2.0199973040e-03 +1.4325827306e-02 +5.8306697199e+00 5.8306898073e+00 4.9935713700e-03 0.0000e+00 0.0000e+00
       11 -1    0    0    0    0 +2.3318091006e-19 -1.6537197559e-18 -6.7307063671e-16 5.1100000000e-04 5.1099893000e-04 0.0000e+00 -1.0000e+00
       50  1    1    2    0    0 -1.3819561081e-02 +1.6339655485e-02 +5.6840210974e+00 5.6840635760e+00 4.9935713700e-03 0.0000e+00 0.0000e+00
       11  1    1    2    0    0 +1.1799563777e-02 -2.0138281790e-03 +1.4664862255e-01 1.4713723127e-01 5.1099893000e-04 0.0000e+00 -1.0000e+00
<vert_displacement>
433.27989443330108
</vert_displacement>
</event>
<event>
 4   1200 +8.6263000e+09 2.06222500e-02 7.81665300e-03            nan
       50 -1    0    0    0    0 +5.1406355630e-02 -1.2515586306e-02 +1.6106185220e+01 1.6106272893e+01 4.9935713700e-03 0.0000e+00 0.0000e+00
       11 -1    0    0    0    0 +3.4549091329e-18 -8.4114528061e-19 +1.0824616087e-15 5.1100000000e-04 5.1099893000e-04 0.0000e+00 1.0000e+00
       50  1    1    2    0    0 +6.6265368470e-02 -3.7983200661e-04 +1.5704371826e+01 1.5704512429e+01 4.9935713700e-03 0.0000e+00 0.0000e+00
       11  1    1    2    0    0 -1.4859012840e-02 -1.2135754299e-02 +4.0181339395e-01 4.0227146490e-01 5.1099893000e-04 0.0000e+00 1.0000e+00
<vert_displacement>
136.65976347944994
</vert_displacement>
</event>
<event>
 4   1200 +8.6263000e+09 6.91671700e-03 7.81665300e-03            nan
       50 -1    0    0    0    0 -2.0675537584e-02 -3.5239749128e-03 +9.3397349761e+00 9.3397598607e+00 4.9935713700e-03 0.0000e+00 0.0000e+00
       11 -1    0    0    0    0 +3.5329642731e-19 +6.0216463131e-20 -1.5959415738e-16 5.1100000000e-04 5.1099893000e-04 0.0000e+00 1.0000e+00
       50  1    1    2    0    0 -2.4086072287e-02 -6.8218032113e-03 +9.3172585629e+00 9.3172935309e+00 4.9935713700e-03 0.0000e+00 0.0000e+00
       11  1    1    2    0    0 +3.4105347038e-03 +3.2978282985e-03 +2.2476413123e-02 2.2977329811e-02 5.1099893000e-04 0.0000e+00 1.0000e+00
<vert_displacement>
253.38555687224672
</vert_displacement>
</event>
<event>
 4   1200 +8.6263000e+09 8.33639900e-03 7.81665300e-03            nan
       50 -1    0    0    0    0 +9.3796879852e-04 -1.3465882807e-02 +9.5442493666e+00 9.5442602185e+00 4.9935713700e-03 0.0000e+00 0.0000e+00
       11 -1    0    0    0    0 -3.8187783686e-20 +5.4824021928e-19 -3.8857766999e-16 5.1100000000e-04 5.1099893000e-04 0.0000e+00 1.0000e+00
       50  1    1    2    0    0 +2.2454988043e-04 -6.7665450031e-03 +9.5004543673e+00 9.5004580919e+00 4.9935713700e-03 0.0000e+00 0.0000e+00
       11  1    1    2    0    0 +7.1341891809e-04 -6.6993378042e-03 +4.3794999344e-02 4.4313126509e-02 5.1099893000e-04 0.0000e+00 1.0000e+00
<vert_displacement>
342.03271502950508
</vert_displacement>
</event>
<event>
 4   1200 +8.6263000e+09 2.20806100e-02 7.81665300e-03            nan
       50 -1    0    0    0    0 -1.8300142631e-02 +1.3361300281e-03 +9.0051036429e+00 9.0051237213e+00 4.9935713700e-03 0.0000e+00 0.0000e+00
       11 -1    0    0    0    0 -8.6017128332e-19 +6.2802826411e-20 +4.2327164946e-16 5.1100000000e-04 5.1099893000e-04 0.0000e+00 1.0000e+00
       50  1    1    2    0    0 -9.8275297240e-03 -1.8893011485e-02 +8.5269826198e+00 8.5270106755e+00 4.9935713700e-03 0.0000e+00 0.0000e+00
       11  1    1    2    0    0 -8.4726129073e-03 +2.0229141513e-02 +4.7812102314e-01 4.7862404580e-01 5.1099893000e-04 0.0000e+00 1.0000e+00
<vert_displacement>
1.6718166661171652
</vert_displacement>
</event>
<event>
 4   1200 +8.6263000e+09 3.04514300e-02 7.81665300e-03            nan
       50 -1    0    0    0    0 +2.9299919653e-02 +7.2388521412e-03 +1.3196210712e+01 1.3196246170e+01 4.9935713700e-03 0.0000e+00 0.0000e+00
       11 -1    0    0    0    0 -1.4482187060e-18 -3.5779760507e-19 -6.5225432107e-16 5.1100000000e-04 5.1099893000e-04 0.0000e+00 1.0000e+00
       50  1    1    2    0    0 +5.1451593340e-02 -1.0991143223e-02 +1.2244439959e+01 1.2244554011e+01 4.9935713700e-03 0.0000e+00 0.0000e+00
       11  1    1    2    0    0 -2.2151673688e-02 +1.8229995365e-02 +9.5177075226e-01 9.5220315865e-01 5.1099893000e-04 0.0000e+00 1.0000e+00
<vert_displacement>
145.84996698550498
</vert_displacement>
</event>
<event>
 4   1200 +8.6263000e+09 2.06196100e-02 7.81665300e-03            nan
       50 -1    0    0    0    0 -3.6270832066e-02 +3.0354306161e-02 +1.9219842656e+01 1.9219901498e+01 4.9935713700e-03 0.0000e+00 0.0000e+00
       11 -1    0    0    0    0 +7.0187764864e-18 -5.8738682905e-18 -3.7192358714e-15 5.1100000000e-04 5.1099893000e-04 0.0000e+00 1.0000e+00
       50  1    1    2    0    0 -3.4369924810e-02 +4.9695571763e-02 +1.8819853704e+01 1.8819951364e+01 4.9935713700e-03 0.0000e+00 0.0000e+00
       11  1    1    2    0    0 -1.9009072563e-03 -1.9341265603e-02 +3.9998895136e-01 4.0046113461e-01 5.1099893000e-04 0.0000e+00 1.0000e+00
<vert_displacement>
286.29878421920836
</vert_displacement>
</event>
<event>
 4   1200 +8.6263000e+09 1.96534500e-02 7.81665300e-03            nan
       50 -1    0    0    0    0 +1.6413943353e-03 +1.9436888563e-03 +3.5031946146e+00 3.5031990974e+00 4.9935713700e-03 0.0000e+00 0.0000e+00
       11 -1    0    0    0    0 -7.3151176690e-20 -8.6623381050e-20 -1.5612507167e-16 5.1100000000e-04 5.1099893000e-04 0.0000e+00 -1.0000e+00
       50  1    1    2    0    0 +1.9400489871e-03 -1.7280214778e-02 +3.1037455805e+00 3.1037983075e+00 4.9935713700e-03 0.0000e+00 0.0000e+00
       11  1    1    2    0    0 -2.9865465186e-04 +1.9223903634e-02 +3.9944903411e-01 3.9991178982e-01 5.1099893000e-04 0.0000e+00 -1.0000e+00
<vert_displacement>
112.63607432199383
</vert_displacement>
</event>
<event>
 4   1200 +8.6263000e+09 5.87204300e-03 7.81665300e-03            nan
       50 -1    0    0    0    0 -2.8372246753e-02 -5.6927305236e-02 +2.2392971839e+01 2.2393062730e+01 4.9935713700e-03 0.0000e+00 0.0000e+00
       11 -1    0    0    0    0 +8.0883198481e-19 +1.6228755405e-18 -6.3837566393e-16 5.1100000000e-04 5.1099893000e-04 0.0000e+00 1.0000e+00
       50  1    1    2    0    0 -2.5944359393e-02 -5.8829125572e-02 +2.2383626270e+01 2.2383719170e+01 4.9935713700e-03 0.0000e+00 0.0000e+00
       11  1    1    2    0    0 -2.4278873601e-03 +1.9018203361e-03 +9.3455688215e-03 9.8545590530e-03 5.1099893000e-04 0.0000e+00 1.0000e+00
<vert_displacement>
54.240769654111190
</vert_displacement>
</event>
<event>
 4   1200 +8.6263000e+09 2.76780500e-02 7.81665300e-03            nan
       50 -1    0    0    0    0 -5.8219275425e-02 +7.7385723772e-02 +3.9349141770e+01 3.9349261252e+01 4.9935713700e-03 0.0000e+00 0.0000e+00
       11 -1    0    0    0    0 +1.1252033529e-17 -1.4956331081e-17 -7.6050046878e-15 5.1100000000e-04 5.1099893000e-04 0.0000e+00 1.0000e+00
       50  1    1    2    0    0 -7.8846799565e-02 +5.9520779782e-02 +3.8610059659e+01 3.8610186368e+01 4.9935713700e-03 0.0000e+00 0.0000e+00
       11  1    1    2    0    0 +2.0627524140e-02 +1.7864943990e-02 +7.3908211111e-01 7.3958588349e-01 5.1099893000e-04 0.0000e+00 1.0000e+00
<vert_displacement>
104.08770522195023
</vert_displacement>
</event>
<event>
 4   1200 +8.6263000e+09 6.66064300e-02 7.81665300e-03            nan
       50 -1    0    0    0    0 -7.5063959017e-02 +4.6678946098e-02 +2.5068916996e+01 2.5069073333e+01 4.9935713700e-03 0.0000e+00 0.0000e+00
       11 -1    0    0    0    0 -1.3297298415e-17 +8.2689999846e-18 +4.4408644920e-15 5.1100000000e-04 5.1099893000e-04 0.0000e+00 1.0000e+00
       50  1    1    2    0    0 +5.1629588324e-03 +1.7304645718e-02 +1.9525472065e+01 1.9525481055e+01 4.9935713700e-03 0.0000e+00 0.0000e+00
       11  1    1    2    0    0 -8.0226917849e-02 +2.9374300380e-02 +5.5434449301e+00 5.5441032784e+00 5.1099893000e-04 0.0000e+00 1.0000e+00
<vert_displacement>
384.85322225612219
</vert_displacement>
</event>
<event>
 4   1200 +8.6263000e+09 2.40700200e-02 7.81665300e-03            nan
       50 -1    0    0    0    0 +3.2065223806e-02 -1.6993343603e-02 +9.9291647447e+00 9.9292323175e+00 4.9935713700e-03 0.0000e+00 0.0000e+00
       11 -1    0    0    0    0 +5.1539089442e-19 -2.7313748414e-19 +1.5959349386e-16 5.1100000000e-04 5.1099893000e-04 0.0000e+00 1.0000e+00
       50  1    1    2    0    0 +3.4338608923e-02 +7.1731488724e-03 +9.3531737753e+00 9.3532408929e+00 4.9935713700e-03 0.0000e+00 0.0000e+00
       11  1    1    2    0    0 -2.2733851174e-03 -2.4166492475e-02 +5.7599096942e-01 5.7650242464e-01 5.1099893000e-04 0.0000e+00 1.0000e+00
<vert_displacement>
370.87303746194448
</vert_displacement>
</event>
<event>
 4   1200 +8.6263000e+09 3.37925000e-02 7.81665300e-03            nan
       50 -1    0    0    0    0 -2.9743198695e-02 +2.0582495215e-02 +1.6179837515e+01 1.6179878715e+01 4.9935713700e-03 0.0000e+00 0.0000e+00
       11 -1    0    0    0    0 -3.6991392171e-18 +2.5598294257e-18 +2.0122742039e-15 5.1100000000e-04 5.1099893000e-04 0.0000e+00 1.0000e+00
       50  1    1    2    0    0 -5.0141092924e-02 -5.5710619530e-03 +1.5000798652e+01 1.5000884317e+01 4.9935713700e-03 0.0000e+00 0.0000e+00
       11  1    1    2    0    0 +2.0397894229e-02 +2.6153557168e-02 +1.1790388627e+00 1.1795053978e+00 5.1099893000e-04 0.0000e+00 1.0000e+00
<vert_displacement>
356.15816301170122
</vert_displacement>
</event>
<event>
 4   1200 +8.6263000e+09 1.01811200e-02 7.81665300e-03            nan
       50 -1    0    0    0    0 +1.9512646430e-02 -1.4861248531e-02 +8.3534618257e+00 8.3534993272e+00 4.9935713700e-03 0.0000e+00 0.0000e+00
       11 -1    0    0    0    0 +4.1817470954e-18 -3.1849079571e-18 +1.7902269101e-15 5.1100000000e-04 5.1099893000e-04 0.0000e+00 1.0000e+00
       50  1    1    2    0    0 +2.4291991577e-02 -2.2078703690e-02 +8.2756820313e+00 8.2757486422e+00 4.9935713700e-03 0.0000e+00 0.0000e+00
       11  1    1    2    0    0 -4.7793451469e-03 +7.2174551592e-03 +7.7779794403e-02 7.8261684982e-02 5.1099893000e-04 0.0000e+00 1.0000e+00
<vert_displacement>
352.82850365444403
</vert_displacement>
</event>
<event>
 4   1200 +8.6263000e+09 2.51023600e-02 7.81665300e-03            nan
       50 -1    0    0    0    0 -2.5464284083e-02 +1.1743318605e-02 +2.2464857756e+01 2.2464875812e+01 4.9935713700e-03 0.0000e+00 0.0000e+00
       11 -1    0    0    0    0 -2.1865655550e-18 +1.0083745484e-18 +1.9290110025e-15 5.1100000000e-04 5.1099893000e-04 0.0000e+00 1.0000e+00
       50  1    1    2    0    0 -9.0953622741e-04 +1.7397047461e-02 +2.1856193541e+01 2.1856201054e+01 4.9935713700e-03 0.0000e+00 0.0000e+00
       11  1    1    2    0    0 -2.4554747855e-02 -5.6537288558e-03 +6.0866421453e-01 6.0918575776e-01 5.1099893000e-04 0.0000e+00 1.0000e+00
<vert_displacement>
34.270410116251455
</vert_displacement>
</event>
<event>
 4   1200 +8.6263000e+09 2.74081200e-02 7.81665300e-03            nan
       50 -1    0    0    0    0 +6.8351435649e-02 -8.8669491831e-03 +2.3749811776e+01 2.3749912313e+01 4.9935713700e-03 0.0000e+00 0.0000e+00
       11 -1    0    0    0    0 +1.9171103868e-18 -2.4869880518e-19 +6.6613100965e-16 5.1100000000e-04 5.1099893000e-04 0.0000e+00 1.0000e+00
       50  1    1    2    0    0 +9.0432307787e-02 -2.0469339698e-02 +2.3016424757e+01 2.3016612056e+01 4.9935713700e-03 0.0000e+00 0.0000e+00
       11  1    1    2    0    0 -2.2080872137e-02 +1.1602390515e-02 +7.3338701879e-01 7.3381125695e-01 5.1099893000e-04 0.0000e+00 1.0000e+00
<vert_displacement>
470.34107026015278
</vert_displacement>
</event>
<event>
 4   1200 +8.6263000e+09 1.50813100e-02 7.81665300e-03            nan
       50 -1    0    0    0    0 +2.7095744670e-02 +2.0148290174e-02 +1.0481232693e+01 1.0481288272e+01 4.9935713700e-03 0.0000e+00 0.0000e+00
       11 -1    0    0    0    0 +1.5785538218e-18 +1.1738064720e-18 +6.1061949492e-16 5.1100000000e-04 5.1099893000e-04 0.0000e+00 1.0000e+00
       50  1    1    2    0    0 +1.9096100972e-02 +7.6520614794e-03 +1.0279211278e+01 1.0279233077e+01 4.9935713700e-03 0.0000e+00 0.0000e+00
       11  1    1    2    0    0 +7.9996436981e-03 +1.2496228695e-02 +2.0202141485e-01 2.0256619464e-01 5.1099893000e-04 0.0000e+00 1.0000e+00
<vert_displacement>
123.53452324163158
</vert_displacement>
</event>
<event>
 4   1200 +8.6263000e+09 3.98155800e-02 7.81665300e-03            nan
       50 -1    0    0    0    0 -6.0531850267e-03 +7.1113489753e-03 +6.3052541037e+00 6.3052629969e+00 4.9935713700e-03 0.0000e+00 0.0000e+00
       11 -1    0    0    0    0 +5.5290334685e-19 -6.4955699054e-19 -5.7592756233e-16 5.1100000000e-04 5.1099893000e-04 0.0000e+00 1.0000e+00
       50  1    1    2    0    0 -3.8518834585e-02 -1.4193611380e-02 +3.6868921672e+00 3.6871240754e+00 4.9935713700e-03 0.0000e+00 0.0000e+00
       11  1    1    2    0    0 +3.2465649558e-02 +2.1304960355e-02 +2.6183619365e+00 2.6186499215e+00 5.1099893000e-04 0.0000e+00 1.0000e+00
<vert_displacement>
324.68712179955617
</vert_displacement>
</event>
<event>
 4   1200 +8.6263000e+09 2.17593700e-02 7.81665300e-03            nan
       50 -1    0    0    0    0 +2.3728591105e-02 +2.9611819977e-02 +1.1706161807e+01 1.1706224373e+01 4.9935713700e-03 0.0000e+00 0.0000e+00
       11 -1    0    0    0    0 -9.8456282850e-19 -1.2286737592e-18 -4.8572002140e-16 5.1100000000e-04 5.1099893000e-04 0.0000e+00 1.0000e+00
       50  1    1    2    0    0 +2.8290779454e-02 +4.8911541162e-02 +1.1249344201e+01 1.1249487214e+01 4.9935713700e-03 0.0000e+00 0.0000e+00
       11  1    1    2    0    0 -4.5621883494e-03 -1.9299721184e-02 +4.5681760593e-01 4.5724815910e-01 5.1099893000e-04 0.0000e+00 1.0000e+00
<vert_displacement>
242.06160522811859
</vert_displacement>
</event>
<event>
 4   1200 +8.6263000e+09 1.62145100e-02 7.81665300e-03            nan
       50 -1    0    0    0    0 +3.2309213181e-02 -1.3987855974e-02 +2.1724903427e+01 2.1724932529e+01 4.9935713700e-03 0.0000e+00 0.0000e+00
       11 -1    0    0    0    0 -5.5725242102e-19 +2.4125522842e-19 -3.7469977877e-16 5.1100000000e-04 5.1099893000e-04 0.0000e+00 1.0000e+00
       50  1    1    2    0    0 +2.5347171968e-02 +1.0130825871e-04 +2.1489511493e+01 2.1489527022e+01 4.9935713700e-03 0.0000e+00 0.0000e+00
       11  1    1    2    0    0 +6.9620412130e-03 -1.4089164232e-02 +2.3539193439e-01 2.3591650739e-01 5.1099893000e-04 0.0000e+00 1.0000e+00
<vert_displacement>
488.22002148710237
</vert_displacement>
</event>
<event>
 4   1200 +8.6263000e+09 1.72699900e-02 7.81665300e-03            nan
       50 -1    0    0    0    0 -1.0723438215e-02 -3.5035717618e-03 +1.6897602571e+01 1.6897607075e+01 4.9935713700e-03 0.0000e+00 0.0000e+00
       11 -1    0    0    0    0 -1.4971938341e-18 -4.8916456963e-19 +2.3592234015e-15 5.1100000000e-04 5.1099893000e-04 0.0000e+00 1.0000e+00
       50  1    1    2    0    0 -3.1935109414e-03 -1.8252111134e-02 +1.6625784071e+01 1.6625795146e+01 4.9935713700e-03 0.0000e+00 0.0000e+00
       11  1    1    2    0    0 -7.5299272731e-03 +1.4748539372e-02 +2.7181850042e-01 2.7232292873e-01 5.1099893000e-04 0.0000e+00 1.0000e+00
<vert_displacement>
449.38207746989326
</vert_displacement>
</event>
<event>
 4   1200 +8.6263000e+09 3.59710400e-02 7.81665300e-03            nan
       50 -1    0    0    0    0 +6.3881941499e-03 +6.6882866937e-03 +9.3842588530e+00 9.3842647393e+00 4.9935713700e-03 0.0000e+00 0.0000e+00
       11 -1    0    0    0    0 +3.3064823154e-19 +3.4618080093e-19 +4.8572233737e-16 5.1100000000e-04 5.1099893000e-04 0.0000e+00 1.0000e+00
       50  1    1    2    0    0 +8.9690981558e-03 +4.1079866399e-02 +7.9104510907e+00 7.9105644169e+00 4.9935713700e-03 0.0000e+00 0.0000e+00
       11  1    1    2    0    0 -2.5809040059e-03 -3.4391579705e-02 +1.4738077623e+00 1.4742113224e+00 5.1099893000e-04 0.0000e+00 1.0000e+00
<vert_displacement>
307.43402272952989
</vert_displacement>
</event>
<event>
 4   1200 +8.6263000e+09 4.54296100e-02 7.81665300e-03            nan
       50 -1    0    0    0    0 +4.2916465049e-02 -2.4496951647e-02 +1.2339690434e+01 1.2339790390e+01 4.9935713700e-03 0.0000e+00 0.0000e+00
       11 -1    0    0    0    0 -1.6651583272e-18 +9.5048142899e-19 -4.7877984029e-16 5.1100000000e-04 5.1099893000e-04 0.0000e+00 1.0000e+00
       50  1    1    2    0    0 +3.4076516045e-02 -6.4679349008e-02 +9.8352616373e+00 9.8355346086e+00 4.9935713700e-03 0.0000e+00 0.0000e+00
       11  1    1    2    0    0 +8.8399490035e-03 +4.0182397361e-02 +2.5044287967e+00 2.5047667812e+00 5.1099893000e-04 0.0000e+00 1.0000e+00
<vert_displacement>
80.543443695011916
</vert_displacement>
</event>
<event>
 4   1200 +8.6263000e+09 1.07164200e-02 7.81665300e-03            nan
       50 -1    0    0    0    0 -1.6126879302e-02 -1.4581593087e-02 +1.4401490806e+01 1.4401508083e+01 4.9935713700e-03 0.0000e+00 0.0000e+00
       11 -1    0    0    0    0 -1.0023568131e-18 -9.0631044623e-19 +8.9511629356e-16 5.1100000000e-04 5.1099893000e-04 0.0000e+00 1.0000e+00
       50  1    1    2    0    0 -2.2808246524e-02 -2.1119993587e-02 +1.4312957846e+01 1.4312992473e+01 4.9935713700e-03 0.0000e+00 0.0000e+00
       11  1    1    2    0    0 +6.6813672220e-03 +6.5384004992e-03 +8.8532959425e-02 8.9026610479e-02 5.1099893000e-04 0.0000e+00 1.0000e+00
<vert_displacement>
227.26375430787778
</vert_displacement>
</event>
<event>
 4   1200 +8.6263000e+09 6.20017500e-03 7.81665300e-03            nan
       50 -1    0    0    0    0 +7.0496350681e-03 +3.1752576368e-03 +2.7453933390e+00 2.7454087676e+00 4.9935713700e-03 0.0000e+00 0.0000e+00
       11 -1    0    0    0    0 -6.0580032523e-19 -2.7286123189e-19 -2.3592145715e-16 5.1100000000e-04 5.1099893000e-04 0.0000e+00 1.0000e+00
       50  1    1    2    0    0 +8.9703619541e-03 +4.7817145557e-05 +2.7321089945e+00 2.7321282846e+00 4.9935713700e-03 0.0000e+00 0.0000e+00
       11  1    1    2    0    0 -1.9207268860e-03 +3.1274404912e-03 +1.3284344498e-02 1.3791483040e-02 5.1099893000e-04 0.0000e+00 1.0000e+00
<vert_displacement>
430.72823627338107
</vert_displacement>
</event>
<event>
 4   1200 +8.6263000e+09 2.05560100e-02 7.81665300e-03            nan
       50 -1    0    0    0    0 +5.3840686582e-03 -5.6069491405e-02 +3.3618738196e+01 3.3618785754e+01 4.9935713700e-03 0.0000e+00 0.0000e+00
       11 -1    0    0    0    0 +6.2231009324e-20 -6.4807142404e-19 +3.8857751321e-16 5.1100000000e-04 5.1099893000e-04 0.0000e+00 1.0000e+00
       50  1    1    2    0    0 +2.5198168914e-02 -5.3827684164e-02 +3.3225064326e+01 3.3225117859e+01 4.9935713700e-03 0.0000e+00 0.0000e+00
       11  1    1    2    0    0 -1.9814100256e-02 -2.2418072411e-03 +3.9367387019e-01 3.9417889525e-01 5.1099893000e-04 0.0000e+00 1.0000e+00
<vert_displacement>
221.66414379395286
</vert_displacement>
</event>
<event>
 4   1200 +8.6263000e+09 5.79421900e-03 7.81665300e-03            nan
       50 -1    0    0    0    0 +8.4110244550e-02 +2.0985623831e-02 +3.5318886884e+01 3.5318993623e+01 4.9935713700e-03 0.0000e+00 0.0000e+00
       11 -1    0    0    0    0 +5.0895752911e-18 +1.2698561643e-18 +2.1371728849e-15 5.1100000000e-04 5.1099893000e-04 0.0000e+00 1.0000e+00
       50  1    1    2    0    0 +8.1432698536e-02 +2.2235725993e-02 +3.5310439052e+01 3.5310540306e+01 4.9935713700e-03 0.0000e+00 0.0000e+00
       11  1    1    2    0    0 +2.6775460137e-03 -1.2501021620e-03 +8.4478315796e-03 8.9643173959e-03 5.1099893000e-04 0.0000e+00 1.0000e+00
<vert_displacement>
271.70793598701425
</vert_displacement>
</event>
<event>
 4   1200 +8.6263000e+09 1.03298100e-02 7.81665300e-03            nan
       50 -1    0    0    0    0 -1.5944099109e-02 -9.5273853539e-03 +1.0114963765e+01 1.0114982050e+01 4.9935713700e-03 0.0000e+00 0.0000e+00
       11 -1    0    0    0    0 +1.8594054104e-19 +1.1110864122e-19 -1.1796099749e-16 5.1100000000e-04 5.1099893000e-04 0.0000e+00 1.0000e+00
       50  1    1    2    0    0 -1.7814448042e-02 -6.3216426869e-04 +1.0034311360e+01 1.0034328436e+01 4.9935713700e-03 0.0000e+00 0.0000e+00
       11  1    1    2    0    0 +1.8703489336e-03 -8.8952210852e-03 +8.0652404441e-02 8.1164614367e-02 5.1099893000e-04 0.0000e+00 1.0000e+00
<vert_displacement>
240.53839169150427
</vert_displacement>
</event>
<event>
 4   1200 +8.6263000e+09 3.48658500e-02 7.81665300e-03            nan
       50 -1    0    0    0    0 -1.4818022230e-03 +1.3254688370e-02 +8.0772162416e+00 8.0772287966e+00 4.9935713700e-03 0.0000e+00 0.0000e+00
       11 -1    0    0    0    0 +6.3648502698e-20 -5.6933446000e-19 -3.4694422222e-16 5.1100000000e-04 5.1099893000e-04 0.0000e+00 1.0000e+00
       50  1    1    2    0    0 +2.2569582772e-03 -2.3394654266e-02 +6.6641859452e+00 6.6642292616e+00 4.9935713700e-03 0.0000e+00 0.0000e+00
       11  1    1    2    0    0 -3.7387605003e-03 +3.6649342636e-02 +1.4130302964e+00 1.4135105349e+00 5.1099893000e-04 0.0000e+00 1.0000e+00
<vert_displacement>
273.73467450039152
</vert_displacement>
</event>
<event>
 4   1200 +8.6263000e+09 2.29178100e-02 7.81665300e-03            nan
       50 -1    0    0    0    0 +4.8826554339e-03 +4.3984767798e-03 +5.8652070914e+00 5.8652128988e+00 4.9935713700e-03 0.0000e+00 0.0000e+00
       11 -1    0    0    0    0 -6.6429432354e-19 -5.9842092005e-19 -7.9797229806e-16 5.1100000000e-04 5.1099893000e-04 0.0000e+00 1.0000e+00
       50  1    1    2    0    0 -1.7695620060e-02 +7.4047889163e-04 +5.3258600633e+00 5.3258918533e+00 4.9935713700e-03 0.0000e+00 0.0000e+00
       11  1    1    2    0    0 +2.2578275494e-02 +3.6579978882e-03 +5.3934702812e-01 5.3983204548e-01 5.1099893000e-04 0.0000e+00 1.0000e+00
<vert_displacement>
333.05168196029138
</vert_displacement>
</event>
<event>
 4   1200 +8.6263000e+09 1.24063400e-02 7.81665300e-03            nan
       50 -1    0    0    0    0 -3.5248751524e-02 -3.1848041646e-04 +1.3287553714e+01 1.3287601410e+01 4.9935713700e-03 0.0000e+00 0.0000e+00
       11 -1    0    0    0    0 +2.8715211768e-18 +2.5944841185e-20 -1.0824636400e-15 5.1100000000e-04 5.1099893000e-04 0.0000e+00 1.0000e+00
       50  1    1    2    0    0 -2.4891630275e-02 +5.0323785546e-03 +1.3160146663e+01 1.3160172113e+01 4.9935713700e-03 0.0000e+00 0.0000e+00
       11  1    1    2    0    0 -1.0357121249e-02 -5.3508589711e-03 +1.2740705113e-01 1.2794029643e-01 5.1099893000e-04 0.0000e+00 1.0000e+00
<vert_displacement>
287.23415477836818
</vert_displacement>
</event>
<event>
 4   1200 +8.6263000e+09 3.00434100e-02 7.81665300e-03            nan
       50 -1    0    0    0    0 +6.0083716820e-02 -4.9792107795e-02 +2.4442452613e+01 2.4442577687e+01 4.9935713700e-03 0.0000e+00 0.0000e+00
       11 -1    0    0    0    0 -1.6374621711e-18 +1.3569848413e-18 -6.6613042004e-16 5.1100000000e-04 5.1099893000e-04 0.0000e+00 1.0000e+00
       50  1    1    2    0    0 +7.1090416703e-02 -2.1452985210e-02 +2.3551147521e+01 2.3551265116e+01 4.9935713700e-03 0.0000e+00 0.0000e+00
       11  1    1    2    0    0 -1.1006699883e-02 -2.8339122586e-02 +8.9130509160e-01 8.9182357042e-01 5.1099893000e-04 0.0000e+00 1.0000e+00
<vert_displacement>
485.81561667430111
</vert_displacement>
</event>
<event>
 4   1200 +8.6263000e+09 8.90700700e-03 7.81665300e-03            nan
       50 -1    0    0    0    0 +1.3642775431e-02 -4.6668939451e-04 +5.5058908069e+00 5.5059099935e+00 4.9935713700e-03 0.0000e+00 0.0000e+00
       11 -1    0    0    0    0 -1.7193490325e-20 +5.8815155538e-22 -6.9388725776e-18 5.1100000000e-04 5.1099893000e-04 0.0000e+00 1.0000e+00
       50  1    1    2    0    0 +7.3923130526e-03 +3.6583029941e-03 +5.4521462981e+00 5.4521548236e+00 4.9935713700e-03 0.0000e+00 0.0000e+00
       11  1    1    2    0    0 +6.2504623782e-03 -4.1249923886e-03 +5.3744508847e-02 5.4266169878e-02 5.1099893000e-04 0.0000e+00 1.0000e+00
<vert_displacement>
488.82581030032276
</vert_displacement>
</event>
<event>
 4   1200 +8.6263000e+09 9.70665500e-03 7.81665300e-03            nan
       50 -1    0    0    0    0 +3.0289757104e-03 +8.0551893240e-03 +1.8239979811e+01 1.8239982525e+01 4.9935713700e-03 0.0000e+00 0.0000e+00
       11 -1    0    0    0    0 -3.5951435028e-19 -9.5608431136e-19 -2.1649346571e-15 5.1100000000e-04 5.1099893000e-04 0.0000e+00 1.0000e+00
       50  1    1    2    0    0 -1.0550151109e-03 +1.5284378580e-02 +1.8171929215e+01 1.8171936360e+01 4.9935713700e-03 0.0000e+00 0.0000e+00
       11  1    1    2    0    0 +4.0839908213e-03 -7.2291892562e-03 +6.8050595395e-02 6.8557164555e-02 5.1099893000e-04 0.0000e+00 1.0000e+00
<vert_displacement>
463.79201806004210
</vert_displacement>
</event>
<event>
 4   1200 +8.6263000e+09 1.04490500e-02 7.81665300e-03            nan
       50 -1    0    0    0    0 -1.6871000042e-02 +4.0411246460e-03 +5.3918411545e+00 5.3918713758e+00 4.9935713700e-03 0.0000e+00 0.0000e+00
       11 -1    0    0    0    0 +1.5198116753e-18 -3.6404175230e-19 -4.8572005912e-16 5.1100000000e-04 5.1099893000e-04 0.0000e+00 1.0000e+00
       50  1    1    2    0    0 -2.5664016871e-02 +2.4776833336e-03 +5.3080665542e+00 5.3081315225e+00 4.9935713700e-03 0.0000e+00 0.0000e+00
       11  1    1    2    0    0 +8.7930168290e-03 +1.5634413124e-03 +8.3774600315e-02 8.4250853239e-02 5.1099893000e-04 0.0000e+00 1.0000e+00
<vert_displacement>
209.40054562561389
</vert_displacement>
</event>
<event>
 4   1200 +8.6263000e+09 9.81456200e-03 7.81665300e-03            nan
       50 -1    0    0    0    0 +3.7452178609e-02 -8.3180033930e-03 +1.3401566076e+01 1.3401621920e+01 4.9935713700e-03 0.0000e+00 0.0000e+00
       11 -1    0    0    0    0 +2.4045382316e-18 -5.3403988532e-19 +8.6041931848e-16 5.1100000000e-04 5.1099893000e-04 0.0000e+00 1.0000e+00
       50  1    1    2    0    0 +3.6117764711e-02 -1.6646659587e-02 +1.3331339944e+01 1.3331400198e+01 4.9935713700e-03 0.0000e+00 0.0000e+00
       11  1    1    2    0    0 +1.3344138985e-03 +8.3286561937e-03 +7.0226132448e-02 7.0732722081e-02 5.1099893000e-04 0.0000e+00 1.0000e+00
<vert_displacement>
278.56097517455464
</vert_displacement>
</event>
<event>
 4   1200 +8.6263000e+09 6.27882400e-03 7.81665300e-03            nan
       50 -1    0    0    0    0 +7.6359571832e-03 -5.9238622477e-04 +4.2390785315e+00 4.2390883915e+00 4.9935713700e-03 0.0000e+00 0.0000e+00
       11 -1    0    0    0    0 +1.2499181102e-20 -9.6966791822e-22 +6.9388825786e-18 5.1100000000e-04 5.1099893000e-04 0.0000e+00 1.0000e+00
       50  1    1    2    0    0 +3.8142974588e-03 -3.1120398297e-04 +4.2248596994e+00 4.2248643837e+00 4.9935713700e-03 0.0000e+00 0.0000e+00
       11  1    1    2    0    0 +3.8216597245e-03 -2.8118224180e-04 +1.4218832135e-02 1.4735007760e-02 5.1099893000e-04 0.0000e+00 1.0000e+00
<vert_displacement>
452.86428336617837
</vert_displacement>
</event>
<event>
 4   1200 +8.6263000e+09 8.72091300e-03 7.81665300e-03            nan
       50 -1    0    0    0    0 -8.3631405354e-03 +6.6044429583e-03 +4.1240549601e+00 4.1240717513e+00 4.9935713700e-03 0.0000e+00 0.0000e+00
       11 -1    0    0    0    0 +4.7842367719e-19 -3.7781523250e-19 -2.3592160511e-16 5.1100000000e-04 5.1099893000e-04 0.0000e+00 1.0000e+00
       50  1    1    2    0    0 -1.5302517735e-02 +5.2874541729e-03 +4.0733927199e+00 4.0734279557e+00 4.9935713700e-03 0.0000e+00 0.0000e+00
       11  1    1    2    0    0 +6.9393771994e-03 +1.3169887854e-03 +5.0662240202e-02 5.1154795646e-02 5.1099893000e-04 0.0000e+00 1.0000e+00
<vert_displacement>
120.21144378594342
</vert_displacement>
</event>
<event>
 4   1200 +8.6263000e+09 2.49590800e-02 7.81665300e-03            nan
       50 -1    0    0    0    0 +2.4685341984e-02 -1.7395107463e-02 +1.4261054380e+01 1.4261087228e+01 4.9935713700e-03 0.0000e+00 0.0000e+00
       11 -1    0    0    0    0 +3.2429522187e-19 -2.2852226385e-19 +1.8734971536e-16 5.1100000000e-04 5.1099893000e-04 0.0000e+00 1.0000e+00
       50  1    1    2    0    0 +1.9056424078e-02 +7.3741873952e-03 +1.3649666614e+01 1.3649682821e+01 4.9935713700e-03 0.0000e+00 0.0000e+00
       11  1    1    2    0    0 +5.6289179056e-03 -2.4769294858e-02 +6.1138776642e-01 6.1191540652e-01 5.1099893000e-04 0.0000e+00 1.0000e+00
<vert_displacement>
324.47059183734814
</vert_displacement>
</event>
<event>
 4   1200 +8.6263000e+09 5.49894900e-03 7.81665300e-03            nan
       50 -1    0    0    0    0 +2.0369339018e-02 -1.5205503471e-02 +6.2160836565e+00 6.2161376335e+00 4.9935713700e-03 0.0000e+00 0.0000e+00
       11 -1    0    0    0    0 +1.0914100268e-18 -8.1472643449e-19 +3.3306412272e-16 5.1100000000e-04 5.1099893000e-04 0.0000e+00 1.0000e+00
       50  1    1    2    0    0 +2.2636967854e-02 -1.5480915533e-02 +6.2108821861e+00 6.2109447395e+00 4.9935713700e-03 0.0000e+00 0.0000e+00
       11  1    1    2    0    0 -2.2676288355e-03 +2.7541206238e-04 +5.2014704353e-03 5.7038940151e-03 5.1099893000e-04 0.0000e+00 1.0000e+00
<vert_displacement>
97.164727998531887
</vert_displacement>
</event>
<event>
 4   1200 +8.6263000e+09 3.39891100e-02 7.81665300e-03            nan
       50 -1    0    0    0    0 +1.4120915561e-03 +6.2108859032e-03 +1.1379573081e+01 1.1379575959e+01 4.9935713700e-03 0.0000e+00 0.0000e+00
       11 -1    0    0    0    0 +3.1858754259e-20 +1.4012624526e-19 +2.5673903423e-16 5.1100000000e-04 5.1099893000e-04 0.0000e+00 1.0000e+00
       50  1    1    2    0    0 +2.1555974559e-02 +3.2334499952e-02 +1.0137703363e+01 1.0137779076e+01 4.9935713700e-03 0.0000e+00 0.0000e+00
       11  1    1    2    0    0 -2.0143883003e-02 -2.6123614049e-02 +1.2418697173e+00 1.2423078826e+00 5.1099893000e-04 0.0000e+00 1.0000e+00
<vert_displacement>
142.51322296450118
</vert_displacement>
</event>
<event>
 4   1200 +8.6263000e+09 9.32998900e-03 7.81665300e-03            nan
       50 -1    0    0    0    0 -5.7664089643e-02 -4.3529318389e-03 +1.7362664339e+01 1.7362761358e+01 4.9935713700e-03 0.0000e+00 0.0000e+00
       11 -1    0    0    0    0 +2.3045010433e-18 +1.7396157689e-19 -6.9388554179e-16 5.1100000000e-04 5.1099893000e-04 0.0000e+00 1.0000e+00
       50  1    1    2    0    0 -6.2366167228e-02 +1.8314125423e-03 +1.7301657722e+01 1.7301770943e+01 4.9935713700e-03 0.0000e+00 0.0000e+00
       11  1    1    2    0    0 +4.7020775858e-03 -6.1843443812e-03 +6.1006617402e-02 6.1501415722e-02 5.1099893000e-04 0.0000e+00 1.0000e+00
<vert_displacement>
72.802112965775791
</vert_displacement>
</event>
<event>
 4   1200 +8.6263000e+09 3.36941100e-02 7.81665300e-03            nan
       50 -1    0    0    0    0 +3.0063794403e-02 -1.7058858969e-02 +1.1564080092e+01 1.1564132831e+01 4.9935713700e-03 0.0000e+00 0.0000e+00
       11 -1    0    0    0    0 -1.4070697018e-18 +7.9840233342e-19 -5.4123130661e-16 5.1100000000e-04 5.1099893000e-04 0.0000e+00 1.0000e+00
       50  1    1    2    0    0 +4.7710843466e-02 +1.0762297853e-02 +1.0349797976e+01 1.0349914746e+01 4.9935713700e-03 0.0000e+00 0.0000e+00
       11  1    1    2    0    0 -1.7647049063e-02 -2.7821156822e-02 +1.2142821152e+00 1.2147290857e+00 5.1099893000e-04 0.0000e+00 1.0000e+00
<vert_displacement>
276.01788566217130
</vert_displacement>
</event>
<event>
 4   1200 +8.6263000e+09 1.27626600e-02 7.81665300e-03            nan
       50 -1    0    0    0    0 -2.3748436037e-02 +1.5101601991e-02 +1.1062956022e+01 1.1062992946e+01 4.9935713700e-03 0.0000e+00 0.0000e+00
       11 -1    0    0    0    0 +2.6811750866e-18 -1.7049560217e-18 -1.2489968612e-15 5.1100000000e-04 5.1099893000e-04 0.0000e+00 1.0000e+00
       50  1    1    2    0    0 -2.5437420584e-02 +2.6491705457e-02 +1.0926257706e+01 1.0926320573e+01 4.9935713700e-03 0.0000e+00 0.0000e+00
       11  1    1    2    0    0 +1.6889845469e-03 -1.1390103466e-02 +1.3669831586e-01 1.3718337292e-01 5.1099893000e-04 0.0000e+00 1.0000e+00
<vert_displacement>
491.39086461990672
</vert_displacement>
</event>
<event>
 4   1200 +8.6263000e+09 5.38846600e-03 7.81665300e-03            nan
       50 -1    0    0    0    0 -1.5212476692e-02 -7.3694443119e-03 +7.3900718237e+00 7.3900928427e+00 4.9935713700e-03 0.0000e+00 0.0000e+00
       11 -1    0    0    0    0 +8.5702132405e-20 +4.1517045840e-20 -4.1633254514e-17 5.1100000000e-04 5.1099893000e-04 0.0000e+00 1.0000e+00
       50  1    1    2    0    0 -1.3945005515e-02 -8.9510649955e-03 +7.3860588262e+00 7.3860791022e+00 4.9935713700e-03 0.0000e+00 0.0000e+00
       11  1    1    2    0    0 -1.2674711773e-03 +1.5816206836e-03 +4.0129975326e-03 4.5247404649e-03 5.1099893000e-04 0.0000e+00 1.0000e+00
<vert_displacement>
2.6456128665770158E-003
</vert_displacement>
</event>
<event>
 4   1200 +8.6263000e+09 8.20049800e-03 7.81665300e-03            nan
       50 -1    0    0    0    0 +1.4788426809e-03 -4.4900732376e-03 +4.0993862232e+00 4.0993919903e+00 4.9935713700e-03 0.0000e+00 0.0000e+00
       11 -1    0    0    0    0 -3.5044602081e-20 +1.0640268364e-19 -9.7144450062e-17 5.1100000000e-04 5.1099893000e-04 0.0000e+00 1.0000e+00
       50  1    1    2    0    0 +5.2680406759e-03 -9.7205879117e-03 +4.0575428514e+00 4.0575609877e+00 4.9935713700e-03 0.0000e+00 0.0000e+00
       11  1    1    2    0    0 -3.7891979950e-03 +5.2305146741e-03 +4.1843371813e-02 4.2342002666e-02 5.1099893000e-04 0.0000e+00 1.0000e+00
<vert_displacement>
125.29470906931181
</vert_displacement>
</event>
<event>
 4   1200 +8.6263000e+09 2.36346100e-02 7.81665300e-03            nan
       50 -1    0    0    0    0 -4.1138572292e-02 +9.4397325016e-03 +1.7780690575e+01 1.7780741373e+01 4.9935713700e-03 0.0000e+00 0.0000e+00
       11 -1    0    0    0    0 +3.5319316911e-19 -8.1044354531e-20 -1.5265523579e-16 5.1100000000e-04 5.1099893000e-04 0.0000e+00 1.0000e+00
       50  1    1    2    0    0 -4.5917313203e-02 +3.1455438261e-02 +1.7242147968e+01 1.7242238525e+01 4.9935713700e-03 0.0000e+00 0.0000e+00
       11  1    1    2    0    0 +4.7787409110e-03 -2.2015705760e-02 +5.3854260712e-01 5.3901384813e-01 5.1099893000e-04 0.0000e+00 1.0000e+00
<vert_displacement>
167.56878321001162
</vert_displacement>
</event>
<event>
 4   1200 +8.6263000e+09 1.15054600e-02 7.81665300e-03            nan
       50 -1    0    0    0    0 +2.9804849543e-02 -1.8708148356e-02 +9.7930393902e+00 9.7931038878e+00 4.9935713700e-03 0.0000e+00 0.0000e+00
       11 -1    0    0    0    0 +2.0907016905e-18 -1.3123084999e-18 +6.8694606152e-16 5.1100000000e-04 5.1099893000e-04 0.0000e+00 1.0000e+00
       50  1    1    2    0    0 +2.0197847035e-02 -1.3894796368e-02 +9.6867880337e+00 9.6868203433e+00 4.9935713700e-03 0.0000e+00 0.0000e+00
       11  1    1    2    0    0 +9.6070025083e-03 -4.8133519872e-03 +1.0625135652e-01 1.0679454451e-01 5.1099893000e-04 0.0000e+00 1.0000e+00
<vert_displacement>
260.71761485278540
</vert_displacement>
</event>
<event>
 4   1200 +8.6263000e+09 1.13431100e-02 7.81665300e-03            nan
       50 -1    0    0    0    0 -1.0112142575e-02 -4.5013577606e-02 +1.8014628108e+01 1.8014687877e+01 4.9935713700e-03 0.0000e+00 0.0000e+00
       11 -1    0    0    0    0 +9.7374830532e-19 +4.3345803905e-18 -1.7347177872e-15 5.1100000000e-04 5.1099893000e-04 0.0000e+00 1.0000e+00
       50  1    1    2    0    0 -1.9611893472e-02 -4.1238103075e-02 +1.7912552235e+01 1.7912611136e+01 4.9935713700e-03 0.0000e+00 0.0000e+00
       11  1    1    2    0    0 +9.4997508972e-03 -3.7754745317e-03 +1.0207587367e-01 1.0258774089e-01 5.1099893000e-04 0.0000e+00 1.0000e+00
<vert_displacement>
447.15533266508680
</vert_displacement>
</event>
<event>
 4   1200 +8.6263000e+09 9.34982500e-03 7.81665300e-03            nan
       50 -1    0    0    0    0 +9.8551156758e-03 -3.0949229127e-03 +8.7192605679e+00 8.7192681165e+00 4.9935713700e-03 0.0000e+00 0.0000e+00
       11 -1    0    0    0    0 +1.5685631497e-20 -4.9259513452e-21 +1.3877778069e-17 5.1100000000e-04 5.1099893000e-04 0.0000e+00 1.0000e+00
       50  1    1    2    0    0 +5.1065343362e-03 +3.2980058382e-03 +8.6576900504e+00 8.6576936246e+00 4.9935713700e-03 0.0000e+00 0.0000e+00
       11  1    1    2    0    0 +4.7485813395e-03 -6.3929287509e-03 +6.1570517497e-02 6.2085491925e-02 5.1099893000e-04 0.0000e+00 1.0000e+00
<vert_displacement>
234.71352537735939
</vert_displacement>
</event>
<event>
 4   1200 +8.6263000e+09 7.70425600e-03 7.81665300e-03            nan
       50 -1    0    0    0    0 -8.8521170960e-04 -1.1337024623e-02 +1.4759893680e+01 1.4759898905e+01 4.9935713700e-03 0.0000e+00 0.0000e+00
       11 -1    0    0    0    0 +4.9522322114e-20 +6.3423899518e-19 -8.2572812950e-16 5.1100000000e-04 5.1099893000e-04 0.0000e+00 -1.0000e+00
       50  1    1    2    0    0 -3.7288480362e-04 -1.7155698543e-02 +1.4726131856e+01 1.4726142701e+01 4.9935713700e-03 0.0000e+00 0.0000e+00
       11  1    1    2    0    0 -5.1232690598e-04 +5.8186739197e-03 +3.3761823684e-02 3.4267204488e-02 5.1099893000e-04 0.0000e+00 -1.0000e+00
<vert_displacement>
422.36042636780343
</vert_displacement>
</event>
<event>
 4   1200 +8.6263000e+09 1.58434000e-02 7.81665300e-03            nan
       50 -1    0    0    0    0 -2.2578570083e-02 -1.2110540793e-02 +6.9635630829e+00 6.9636120083e+00 4.9935713700e-03 0.0000e+00 0.0000e+00
       11 -1    0    0    0    0 -2.1373509219e-18 -1.1464178393e-18 +6.5919045894e-16 5.1100000000e-04 5.1099893000e-04 0.0000e+00 1.0000e+00
       50  1    1    2    0    0 -1.3042490916e-02 -2.3908473897e-02 +6.7348031997e+00 6.7348601171e+00 4.9935713700e-03 0.0000e+00 0.0000e+00
       11  1    1    2    0    0 -9.5360791674e-03 +1.1797933104e-02 +2.2875988319e-01 2.2926289126e-01 5.1099893000e-04 0.0000e+00 1.0000e+00
<vert_displacement>
49.369725225544954
</vert_displacement>
</event>
<event>
 4   1200 +8.6263000e+09 1.07767900e-02 7.81665300e-03            nan
       50 -1    0    0    0    0 +1.2139009709e-02 -1.0411884436e-02 +1.9726501224e+01 1.9726508339e+01 4.9935713700e-03 0.0000e+00 0.0000e+00
       11 -1    0    0    0    0 +1.0247892031e-18 -8.7898329512e-19 +1.6653339897e-15 5.1100000000e-04 5.1099893000e-04 0.0000e+00 1.0000e+00
       50  1    1    2    0    0 +1.3723839023e-02 -1.9772749478e-02 +1.9636844774e+01 1.9636860160e+01 4.9935713700e-03 0.0000e+00 0.0000e+00
       11  1    1    2    0    0 -1.5848293136e-03 +9.3608650420e-03 +8.9656449724e-02 9.0159179096e-02 5.1099893000e-04 0.0000e+00 1.0000e+00
<vert_displacement>
347.72526724231329
</vert_displacement>
</event>
<event>
 4   1200 +8.6263000e+09 1.33176700e-02 7.81665300e-03            nan
       50 -1    0    0    0    0 -7.4591893294e-03 -1.2001672868e-04 +9.9289588165e+00 9.9289628749e+00 4.9935713700e-03 0.0000e+00 0.0000e+00
       11 -1    0    0    0    0 +5.2128838192e-20 +8.3874163175e-22 -6.9388919453e-17 5.1100000000e-04 5.1099893000e-04 0.0000e+00 1.0000e+00
       50  1    1    2    0    0 +4.8758948222e-03 +1.6323460352e-03 +9.7775007935e+00 9.7775034207e+00 4.9935713700e-03 0.0000e+00 0.0000e+00
       11  1    1    2    0    0 -1.2335084152e-02 -1.7523627639e-03 +1.5145802305e-01 1.5197045417e-01 5.1099893000e-04 0.0000e+00 1.0000e+00
<vert_displacement>
479.16232163528042
</vert_displacement>
</event>
<event>
 4   1200 +8.6263000e+09 8.83523700e-03 7.81665300e-03            nan
       50 -1    0    0    0    0 -3.8289991622e-02 -1.5612255479e-02 +1.7924724511e+01 1.7924772902e+01 4.9935713700e-03 0.0000e+00 0.0000e+00
       11 -1    0    0    0    0 +1.5118964421e-18 +6.1645648148e-19 -7.0776529491e-16 5.1100000000e-04 5.1099893000e-04 0.0000e+00 1.0000e+00
       50  1    1    2    0    0 -3.4803969228e-02 -2.2027292482e-02 +1.7872590856e+01 1.7872639015e+01 4.9935713700e-03 0.0000e+00 0.0000e+00
       11  1    1    2    0    0 -3.4860223933e-03 +6.4150370030e-03 +5.2133655032e-02 5.2644887300e-02 5.1099893000e-04 0.0000e+00 1.0000e+00
<vert_displacement>
226.60004293422438
</vert_displacement>
</event>
<event>
 4   1200 +8.6263000e+09 7.70402200e-03 7.81665300e-03            nan
       50 -1    0    0    0    0 +6.0149190129e-03 -4.0416673838e-03 +1.2281895070e+01 1.2281898223e+01 4.9935713700e-03 0.0000e+00 0.0000e+00
       11 -1    0    0    0    0 -3.0244372597e-19 +2.0322417311e-19 -6.1756144995e-16 5.1100000000e-04 5.1099893000e-04 0.0000e+00 1.0000e+00
       50  1    1    2    0    0 +1.1364246820e-02 -1.6591252659e-03 +1.2248123448e+01 1.2248129851e+01 4.9935713700e-03 0.0000e+00 0.0000e+00
       11  1    1    2    0    0 -5.3493278066e-03 -2.3825421180e-03 +3.3771621558e-02 3.4279372187e-02 5.1099893000e-04 0.0000e+00 1.0000e+00
<vert_displacement>
146.77966705858043
</vert_displacement>
</event>
<event>
 4   1200 +8.6263000e+09 2.63361500e-02 7.81665300e-03            nan
       50 -1    0    0    0    0 -5.9464430849e-03 +1.2047315517e-02 +5.2613367094e+00 5.2613562323e+00 4.9935713700e-03 0.0000e+00 0.0000e+00
       11 -1    0    0    0    0 +1.0195143755e-19 -2.0655055770e-19 -9.0205326660e-17 5.1100000000e-04 5.1099893000e-04 0.0000e+00 1.0000e+00
       50  1    1    2    0    0 +1.9592940972e-02 +2.5530233151e-03 +4.4948752541e+00 4.4949214550e+00 4.9935713700e-03 0.0000e+00 0.0000e+00
       11  1    1    2    0    0 -2.5539384057e-02 +9.4942922015e-03 +7.6646145529e-01 7.6694577728e-01 5.1099893000e-04 0.0000e+00 1.0000e+00
<vert_displacement>
362.41059440231203
</vert_displacement>
</event>
<event>
 4   1200 +8.6263000e+09 1.81383000e-02 7.81665300e-03            nan
       50 -1    0    0    0    0 +1.2913751807e-03 +5.7064316813e-03 +3.6169162471e+00 3.6169244263e+00 4.9935713700e-03 0.0000e+00 0.0000e+00
       11 -1    0    0    0    0 +7.5562009879e-20 +3.3389943799e-19 +2.1163598718e-16 5.1100000000e-04 5.1099893000e-04 0.0000e+00 1.0000e+00
       50  1    1    2    0    0 +1.7792791424e-02 +1.0471365344e-02 +3.2895111997e+00 3.2895797759e+00 4.9935713700e-03 0.0000e+00 0.0000e+00
       11  1    1    2    0    0 -1.6501416243e-02 -4.7649336624e-03 +3.2740504734e-01 3.2785565036e-01 5.1099893000e-04 0.0000e+00 1.0000e+00
<vert_displacement>
324.97439582018046
</vert_displacement>
</event>
<event>
 4   1200 +8.6263000e+09 1.98850500e-02 7.81665300e-03            nan
       50 -1    0    0    0    0 -1.5549817707e-03 +2.1079413167e-02 +8.5665366386e+00 8.5665641699e+00 4.9935713700e-03 0.0000e+00 0.0000e+00
       11 -1    0    0    0    0 +7.4312344337e-20 -1.0073819766e-18 -4.0939349417e-16 5.1100000000e-04 5.1099893000e-04 0.0000e+00 1.0000e+00
       50  1    1    2    0    0 -1.1139948104e-02 +3.4941281312e-03 +8.1872027988e+00 8.1872126461e+00 4.9935713700e-03 0.0000e+00 0.0000e+00
       11  1    1    2    0    0 +9.5849663329e-03 +1.7585285036e-02 +3.7933383983e-01 3.7986252381e-01 5.1099893000e-04 0.0000e+00 1.0000e+00
<vert_displacement>
293.50036314490865
</vert_displacement>
</event>
<event>
 4   1200 +8.6263000e+09 6.27550700e-03 7.81665300e-03            nan
       50 -1    0    0    0    0 +7.2017281555e-04 -8.7709381508e-03 +4.5504208421e+00 4.5504320920e+00 4.9935713700e-03 0.0000e+00 0.0000e+00
       11 -1    0    0    0    0 +7.1381875036e-20 -8.6935524018e-19 +4.5102726026e-16 5.1100000000e-04 5.1099893000e-04 0.0000e+00 1.0000e+00
       50  1    1    2    0    0 -2.3356740313e-03 -6.4804814777e-03 +4.5362444310e+00 4.5362524098e+00 4.9935713700e-03 0.0000e+00 0.0000e+00
       11  1    1    2    0    0 +3.0558468468e-03 -2.2904566731e-03 +1.4176411087e-02 1.4690682181e-02 5.1099893000e-04 0.0000e+00 1.0000e+00
<vert_displacement>
318.08164597086005
</vert_displacement>
</event>
<event>
 4   1200 +8.6263000e+09 3.22805400e-02 7.81665300e-03            nan
       50 -1    0    0    0    0 -1.2959911770e-02 -5.7823112901e-03 +1.5210647366e+01 1.5210654806e+01 4.9935713700e-03 0.0000e+00 0.0000e+00
       11 -1    0    0    0    0 -4.7297086822e-19 -2.1102495447e-19 +5.5511127071e-16 5.1100000000e-04 5.1099893000e-04 0.0000e+00 1.0000e+00
       50  1    1    2    0    0 -2.8731790278e-02 -3.2554960341e-02 +1.4139895152e+01 1.4139962701e+01 4.9935713700e-03 0.0000e+00 0.0000e+00
       11  1    1    2    0    0 +1.5771878508e-02 +2.6772649051e-02 +1.0707522142e+00 1.0712031050e+00 5.1099893000e-04 0.0000e+00 1.0000e+00
<vert_displacement>
127.66535176110878
</vert_displacement>
</event>
<event>
 4   1200 +8.6263000e+09 1.81569400e-02 7.81665300e-03            nan
       50 -1    0    0    0    0 -3.5635298899e-02 -8.0562343529e-03 +1.1801088040e+01 1.1801145650e+01 4.9935713700e-03 0.0000e+00 0.0000e+00
       11 -1    0    0    0    0 +4.1906029765e-20 +9.4738870450e-21 -1.3877721303e-17 5.1100000000e-04 5.1099893000e-04 0.0000e+00 1.0000e+00
       50  1    1    2    0    0 -4.6093448101e-02 +5.3881003476e-03 +1.1494913943e+01 1.1495008705e+01 4.9935713700e-03 0.0000e+00 0.0000e+00
       11  1    1    2    0    0 +1.0458149202e-02 -1.3444334701e-02 +3.0617409782e-01 3.0664794524e-01 5.1099893000e-04 0.0000e+00 1.0000e+00
<vert_displacement>
117.01654094649064
</vert_displacement>
</event>
<event>
 4   1200 +8.6263000e+09 2.98223900e-02 7.81665300e-03            nan
       50 -1    0    0    0    0 +3.2190517148e-03 +1.8062330104e-02 +2.0889785269e+01 2.0889793923e+01 4.9935713700e-03 0.0000e+00 0.0000e+00
       11 -1    0    0    0    0 +2.2454498109e-19 +1.2599379975e-18 +1.4571671578e-15 5.1100000000e-04 5.1099893000e-04 0.0000e+00 1.0000e+00
       50  1    1    2    0    0 +3.0101872939e-02 +2.8892456153e-02 +2.0006532573e+01 2.0006576704e+01 4.9935713700e-03 0.0000e+00 0.0000e+00
       11  1    1    2    0    0 -2.6882821224e-02 -1.0830126049e-02 +8.8325269639e-01 8.8372821869e-01 5.1099893000e-04 0.0000e+00 1.0000e+00
<vert_displacement>
336.88531398006609
</vert_displacement>
</event>
<event>
 4   1200 +8.6263000e+09 1.79214300e-02 7.81665300e-03            nan
       50 -1    0    0    0    0 -5.4402921685e-03 +9.9532170824e-04 +1.7019824801e+01 1.7019826432e+01 4.9935713700e-03 0.0000e+00 0.0000e+00
       11 -1    0    0    0    0 -2.2179786579e-20 +4.0578745373e-21 +6.9388935376e-17 5.1100000000e-04 5.1099893000e-04 0.0000e+00 1.0000e+00
       50  1    1    2    0    0 +1.0512802252e-02 +7.6668857674e-03 +1.6724835765e+01 1.6724841572e+01 4.9935713700e-03 0.0000e+00 0.0000e+00
       11  1    1    2    0    0 -1.5953094421e-02 -6.6715640592e-03 +2.9498903635e-01 2.9549586067e-01 5.1099893000e-04 0.0000e+00 1.0000e+00
<vert_displacement>
385.79105387471026
</vert_displacement>
</event>
<event>
 4   1200 +8.6263000e+09 1.36435400e-02 7.81665300e-03            nan
       50 -1    0    0    0    0 -4.5699411134e-03 +3.5332310450e-03 +4.2023465717e+00 4.2023535088e+00 4.9935713700e-03 0.0000e+00 0.0000e+00
       11 -1    0    0    0    0 +4.3011385279e-19 -3.3254074393e-19 -3.9551657886e-16 5.1100000000e-04 5.1099893000e-04 0.0000e+00 1.0000e+00
       50  1    1    2    0    0 -1.0997722978e-03 +1.5657942680e-02 +4.0381269125e+00 4.0381605067e+00 4.9935713700e-03 0.0000e+00 0.0000e+00
       11  1    1    2    0    0 -3.4701688155e-03 -1.2124711635e-02 +1.6421965923e-01 1.6470400208e-01 5.1099893000e-04 0.0000e+00 1.0000e+00
<vert_displacement>
351.58145860808912
</vert_displacement>
</event>
<event>
 4   1200 +8.6263000e+09 2.06958200e-02 7.81665300e-03            nan
       50 -1    0    0    0    0 +4.7613408463e-02 +2.9690758851e-02 +1.4783882101e+01 1.4783989431e+01 4.9935713700e-03 0.0000e+00 0.0000e+00
       11 -1    0    0    0    0 -8.2685550975e-19 -5.1561037820e-19 -2.5673722520e-16 5.1100000000e-04 5.1099893000e-04 0.0000e+00 1.0000e+00
       50  1    1    2    0    0 +4.6711923922e-02 +8.7954291737e-03 +1.4378051820e+01 1.4378131257e+01 4.9935713700e-03 0.0000e+00 0.0000e+00
       11  1    1    2    0    0 +9.0148454037e-04 +2.0895329678e-02 +4.0583028107e-01 4.0636917406e-01 5.1099893000e-04 0.0000e+00 1.0000e+00
<vert_displacement>
385.40038901947480
</vert_displacement>
</event>
<event>
 4   1200 +8.6263000e+09 2.22198500e-02 7.81665300e-03            nan
       50 -1    0    0    0    0 +6.0811318718e-04 -1.8115962319e-03 +2.1430634560e+00 2.1430701257e+00 4.9935713700e-03 0.0000e+00 0.0000e+00
       11 -1    0    0    0    0 +1.0829344129e-20 -3.2261097821e-20 +3.8163901299e-17 5.1100000000e-04 5.1099893000e-04 0.0000e+00 1.0000e+00
       50  1    1    2    0    0 +2.0984153266e-02 -8.0112662268e-03 +1.4713320268e+00 1.4715119381e+00 4.9935713700e-03 0.0000e+00 0.0000e+00
       11  1    1    2    0    0 -2.0376040079e-02 +6.1996699949e-03 +6.7173142912e-01 6.7206918758e-01 5.1099893000e-04 0.0000e+00 1.0000e+00
<vert_displacement>
398.59003773418192
</vert_displacement>
</event>
<event>
 4   1200 +8.6263000e+09 7.46774300e-03 7.81665300e-03            nan
       50 -1    0    0    0    0 +1.0754762530e-01 -3.5307634837e-02 +3.1900577200e+01 3.1900778419e+01 4.9935713700e-03 0.0000e+00 0.0000e+00
       11 -1    0    0    0    0 +2.0586023751e-18 -6.7583436394e-19 +6.1061881943e-16 5.1100000000e-04 5.1099893000e-04 0.0000e+00 1.0000e+00
       50  1    1    2    0    0 +1.0502148107e-01 -4.0269610962e-02 +3.1870383200e+01 3.1870582069e+01 4.9935713700e-03 0.0000e+00 0.0000e+00
       11  1    1    2    0    0 +2.5261442241e-03 +4.9619761244e-03 +3.0193999729e-02 3.0707350118e-02 5.1099893000e-04 0.0000e+00 1.0000e+00
<vert_displacement>
175.18839259686462
</vert_displacement>
</event>
<event>
 4   1200 +8.6263000e+09 1.22554600e-02 7.81665300e-03            nan
       50 -1    0    0    0    0 +1.1303891532e-02 -9.4213301795e-03 +5.3863952840e+00 5.3864176993e+00 4.9935713700e-03 0.0000e+00 0.0000e+00
       11 -1    0    0    0    0 +1.4561911483e-19 -1.2136756244e-19 +6.9388680100e-17 5.1100000000e-04 5.1099893000e-04 0.0000e+00 1.0000e+00
       50  1    1    2    0    0 +1.5400611114e-02 +1.1059597540e-03 +5.2608909954e+00 5.2609160232e+00 4.9935713700e-03 0.0000e+00 0.0000e+00
       11  1    1    2    0    0 -4.0967195819e-03 -1.0527289934e-02 +1.2550428862e-01 1.2601267605e-01 5.1099893000e-04 0.0000e+00 1.0000e+00
<vert_displacement>
480.57881521893836
</vert_displacement>
</event>
<event>
 4   1200 +8.6263000e+09 2.74979900e-02 7.81665300e-03            nan
       50 -1    0    0    0    0 -1.1179847392e-02 -1.3699697926e-02 +1.0779237186e+01 1.0779252846e+01 4.9935713700e-03 0.0000e+00 0.0000e+00
       11 -1    0    0    0    0 -8.3482510187e-19 -1.0229881783e-18 +8.0491060985e-16 5.1100000000e-04 5.1099893000e-04 0.0000e+00 1.0000e+00
       50  1    1    2    0    0 +7.9780869639e-03 -3.2573789096e-02 +1.0008503116e+01 1.0008560549e+01 4.9935713700e-03 0.0000e+00 0.0000e+00
       11  1    1    2    0    0 -1.9157934356e-02 +1.8874091170e-02 +7.7073407006e-01 7.7120329722e-01 5.1099893000e-04 0.0000e+00 1.0000e+00
<vert_displacement>
434.00301319334534
</vert_displacement>
</event>
<event>
 4   1200 +8.6263000e+09 9.29972000e-03 7.81665300e-03            nan
       50 -1    0    0    0    0 -5.6212164478e-04 +2.0789693903e-02 +8.7570584846e+00 8.7570846042e+00 4.9935713700e-03 0.0000e+00 0.0000e+00
       11 -1    0    0    0    0 +4.0532414277e-20 -1.4990642930e-18 -6.3143756453e-16 5.1100000000e-04 5.1099893000e-04 0.0000e+00 1.0000e+00
       50  1    1    2    0    0 +7.2808421371e-03 +2.0332648203e-02 +8.6964110773e+00 8.6964393282e+00 4.9935713700e-03 0.0000e+00 0.0000e+00
       11  1    1    2    0    0 -7.8429637818e-03 +4.5704570015e-04 +6.0647407259e-02 6.1156276038e-02 5.1099893000e-04 0.0000e+00 1.0000e+00
<vert_displacement>
395.49489094318761
</vert_displacement>
</event>
<event>
 4   1200 +8.6263000e+09 9.85068000e-03 7.81665300e-03            nan
       50 -1    0    0    0    0 -1.0855042268e-02 +1.0673021802e-02 +5.8363051532e+00 5.8363271432e+00 4.9935713700e-03 0.0000e+00 0.0000e+00
       11 -1    0    0    0    0 -3.8717165269e-20 +3.8067944723e-20 +2.0816610899e-17 5.1100000000e-04 5.1099893000e-04 0.0000e+00 1.0000e+00
       50  1    1    2    0    0 -1.8842435529e-02 +8.0601441847e-03 +5.7648626588e+00 5.7649012493e+00 4.9935713700e-03 0.0000e+00 0.0000e+00
       11  1    1    2    0    0 +7.9873932608e-03 +2.6128776168e-03 +7.1442494379e-02 7.1936893897e-02 5.1099893000e-04 0.0000e+00 1.0000e+00
<vert_displacement>
464.84512267215814
</vert_displacement>
</event>
<event>
 4   1200 +8.6263000e+09 2.23813200e-02 7.81665300e-03            nan
       50 -1    0    0    0    0 -5.7764390443e-03 -7.6244124156e-03 +9.8107261971e+00 9.8107321312e+00 4.9935713700e-03 0.0000e+00 0.0000e+00
       11 -1    0    0    0    0 -7.1905439977e-19 -9.4909117037e-19 +1.2212447466e-15 5.1100000000e-04 5.1099893000e-04 0.0000e+00 1.0000e+00
       50  1    1    2    0    0 -2.3990309103e-02 +4.3170312976e-03 +9.3203922035e+00 9.3204254160e+00 4.9935713700e-03 0.0000e+00 0.0000e+00
       11  1    1    2    0    0 +1.8213870059e-02 -1.1941443713e-02 +4.9033399360e-01 4.9081771519e-01 5.1099893000e-04 0.0000e+00 1.0000e+00
<vert_displacement>
41.103132979675884
</vert_displacement>
</event>
<event>
 4   1200 +8.6263000e+09 3.11125300e-02 7.81665300e-03            nan
       50 -1    0    0    0    0 +1.7830358924e-02 +1.8056003439e-03 +5.5548141950e+00 5.5548453496e+00 4.9935713700e-03 0.0000e+00 0.0000e+00
       11 -1    0    0    0    0 -3.3632215963e-18 -3.4057834151e-19 -1.0477675264e-15 5.1100000000e-04 5.1099893000e-04 0.0000e+00 1.0000e+00
       50  1    1    2    0    0 +1.5961271107e-02 -2.9225966480e-02 +4.3842294146e+00 4.3843587233e+00 4.9935713700e-03 0.0000e+00 0.0000e+00
       11  1    1    2    0    0 +1.8690878171e-03 +3.1031566824e-02 +1.1705847803e+00 1.1709976263e+00 5.1099893000e-04 0.0000e+00 1.0000e+00
<vert_displacement>
38.441034797035591
</vert_displacement>
</event>
<event>
 4   1200 +8.6263000e+09 8.09744400e-03 7.81665300e-03            nan
       50 -1    0    0    0    0 -1.8635585860e-03 +1.0282420259e-03 +3.4044303729e+00 3.4044347005e+00 4.9935713700e-03 0.0000e+00 0.0000e+00
       11 -1    0    0    0    0 -5.6974433467e-20 +3.1436364456e-20 +1.0408338822e-16 5.1100000000e-04 5.1099893000e-04 0.0000e+00 -1.0000e+00
       50  1    1    2    0    0 +4.5298364138e-03 +8.1981731569e-04 +3.3641906742e+00 3.3641975298e+00 4.9935713700e-03 0.0000e+00 0.0000e+00
       11  1    1    2    0    0 -6.3933949998e-03 +2.0842471025e-04 +4.0239698680e-02 4.0748170637e-02 5.1099893000e-04 0.0000e+00 -1.0000e+00
<vert_displacement>
60.796026845964874
</vert_displacement>
</event>
<event>
 4   1200 +8.6263000e+09 3.33783800e-02 7.81665300e-03            nan
       50 -1    0    0    0    0 +2.4454330672e-02 -2.5564947154e-02 +2.0045113244e+01 2.0045145085e+01 4.9935713700e-03 0.0000e+00 0.0000e+00
       11 -1    0    0    0    0 +2.3702538924e-19 -2.4779012074e-19 +1.9428872672e-16 5.1100000000e-04 5.1099893000e-04 0.0000e+00 1.0000e+00
       50  1    1    2    0    0 +3.0234652394e-02 -5.6341484377e-02 +1.8915583979e+01 1.8915692710e+01 4.9935713700e-03 0.0000e+00 0.0000e+00
       11  1    1    2    0    0 -5.7803217218e-03 +3.0776537223e-02 +1.1295292646e+00 1.1299633747e+00 5.1099893000e-04 0.0000e+00 1.0000e+00
<vert_displacement>
231.73746795531204
</vert_displacement>
</event>
<event>
 4   1200 +8.6263000e+09 5.02072400e-02 7.81665300e-03            nan
       50 -1    0    0    0    0 -3.6520409746e-02 +2.2134126576e-02 +1.1732311853e+01 1.1732390635e+01 4.9935713700e-03 0.0000e+00 0.0000e+00
       11 -1    0    0    0    0 -9.0717005035e-19 +5.4981356616e-19 +2.9143161341e-16 5.1100000000e-04 5.1099893000e-04 0.0000e+00 1.0000e+00
       50  1    1    2    0    0 +2.2041518941e-02 +3.0254403609e-02 +8.2609360042e+00 8.2610223192e+00 4.9935713700e-03 0.0000e+00 0.0000e+00
       11  1    1    2    0    0 -5.8561928687e-02 -8.1202770331e-03 +3.4713758493e+00 3.4718793162e+00 5.1099893000e-04 0.0000e+00 1.0000e+00
<vert_displacement>
404.41023977456695
</vert_displacement>
</event>
<event>
 4   1200 +8.6263000e+09 7.85656000e-03 7.81665300e-03            nan
       50 -1    0    0    0    0 -3.7950722139e-02 +2.3175600543e-02 +2.1894334596e+01 2.1894380323e+01 4.9935713700e-03 0.0000e+00 0.0000e+00
       11 -1    0    0    0    0 -9.1409479726e-19 +5.5821588328e-19 +5.2735484903e-16 5.1100000000e-04 5.1099893000e-04 0.0000e+00 1.0000e+00
       50  1    1    2    0    0 -3.7839751279e-02 +1.7072171025e-02 +2.1858283050e+01 2.1858323041e+01 4.9935713700e-03 0.0000e+00 0.0000e+00
       11  1    1    2    0    0 -1.1097085968e-04 +6.1034295177e-03 +3.6051545789e-02 3.6568281886e-02 5.1099893000e-04 0.0000e+00 1.0000e+00
<vert_displacement>
376.60795639243941
</vert_displacement>
</event>
<event>
 4   1200 +8.6263000e+09 4.53498800e-02 7.81665300e-03            nan
       50 -1    0    0    0    0 -4.2087469092e-02 -6.3074250251e-03 +1.5760045862e+01 1.5760104113e+01 4.9935713700e-03 0.0000e+00 0.0000e+00
       11 -1    0    0    0    0 +1.4824292798e-18 +2.2216378744e-19 -5.5510948843e-16 5.1100000000e-04 5.1099893000e-04 0.0000e+00 1.0000e+00
       50  1    1    2    0    0 -4.0435103740e-02 +3.9467473415e-02 +1.3425789768e+01 1.3425909597e+01 4.9935713700e-03 0.0000e+00 0.0000e+00
       11  1    1    2    0    0 -1.6523653527e-03 -4.5774898440e-02 +2.3342560947e+00 2.3347055164e+00 5.1099893000e-04 0.0000e+00 1.0000e+00
<vert_displacement>
455.30053078069704
</vert_displacement>
</event>
<event>
 4   1200 +8.6263000e+09 1.05359100e-02 7.81665300e-03            nan
       50 -1    0    0    0    0 -1.0035981761e-02 +5.8202578684e-03 +3.3725988654e+00 3.3726225166e+00 4.9935713700e-03 0.0000e+00 0.0000e+00
       11 -1    0    0    0    0 +3.8199227456e-19 -2.2153224215e-19 -1.2836877771e-16 5.1100000000e-04 5.1099893000e-04 0.0000e+00 1.0000e+00
       50  1    1    2    0    0 -1.0596286619e-02 -3.5702150376e-03 +3.2861507987e+00 3.2861736161e+00 4.9935713700e-03 0.0000e+00 0.0000e+00
       11  1    1    2    0    0 +5.6030485859e-04 +9.3904729059e-03 +8.6448066775e-02 8.6959900483e-02 5.1099893000e-04 0.0000e+00 1.0000e+00
<vert_displacement>
12.272558143313720
</vert_displacement>
</event>
<event>
 4   1200 +8.6263000e+09 1.28163100e-02 7.81665300e-03            nan
       50 -1    0    0    0    0 +6.5598233077e-03 +3.7524181578e-02 +1.5046627343e+01 1.5046676392e+01 4.9935713700e-03 0.0000e+00 0.0000e+00
       11 -1    0    0    0    0 +4.7494299255e-19 +2.7168181604e-18 +1.0894028517e-15 5.1100000000e-04 5.1099893000e-04 0.0000e+00 1.0000e+00
       50  1    1    2    0    0 +1.7032433896e-02 +4.2508934091e-02 +1.4909022125e+01 1.4909093291e+01 4.9935713700e-03 0.0000e+00 0.0000e+00
       11  1    1    2    0    0 -1.0472610588e-02 -4.9847525134e-03 +1.3760521827e-01 1.3809410033e-01 5.1099893000e-04 0.0000e+00 1.0000e+00
<vert_displacement>
136.84414968039749
</vert_displacement>
</event>
<event>
 4   1200 +8.6263000e+09 5.48229900e-02 7.81665300e-03            nan
       50 -1    0    0    0    0 +4.8353612819e-02 -4.4354941561e-02 +2.5475068341e+01 2.5475153333e+01 4.9935713700e-03 0.0000e+00 0.0000e+00
       11 -1    0    0    0    0 +6.5062287199e-18 -5.9681868185e-18 +3.4278022183e-15 5.1100000000e-04 5.1099893000e-04 0.0000e+00 1.0000e+00
       50  1    1    2    0    0 +9.6559966818e-02 -3.9593663659e-02 +2.2114835079e+01 2.2115081890e+01 4.9935713700e-03 0.0000e+00 0.0000e+00
       11  1    1    2    0    0 -4.8206353999e-02 -4.7612779021e-03 +3.3602332623e+00 3.3605824437e+00 5.1099893000e-04 0.0000e+00 1.0000e+00
<vert_displacement>
253.16688948979314
</vert_displacement>
</event>
<event>
 4   1200 +8.6263000e+09 1.46775500e-02 7.81665300e-03            nan
       50 -1    0    0    0    0 +2.0896570325e-02 -2.9868797356e-02 +1.3446767259e+01 1.3446817596e+01 4.9935713700e-03 0.0000e+00 0.0000e+00
       11 -1    0    0    0    0 -1.0783153219e-18 +1.5413046894e-18 -6.9388684071e-16 5.1100000000e-04 5.1099893000e-04 0.0000e+00 1.0000e+00
       50  1    1    2    0    0 +3.3992168297e-02 -3.2798120738e-02 +1.3257675530e+01 1.3257760617e+01 4.9935713700e-03 0.0000e+00 0.0000e+00
       11  1    1    2    0    0 -1.3095597972e-02 +2.9293233824e-03 +1.8909172831e-01 1.8956797846e-01 5.1099893000e-04 0.0000e+00 1.0000e+00
<vert_displacement>
304.73916449516787
</vert_displacement>
</event>
<event>
 4   1200 +8.6263000e+09 1.05114100e-02 7.81665300e-03            nan
       50 -1    0    0    0    0 +4.1211989592e-02 +4.0051054829e-02 +1.5798703789e+01 1.5798809096e+01 4.9935713700e-03 0.0000e+00 0.0000e+00
       11 -1    0    0    0    0 +3.4752874151e-18 +3.3773891575e-18 +1.3322588158e-15 5.1100000000e-04 5.1099893000e-04 0.0000e+00 1.0000e+00
       50  1    1    2    0    0 +4.2158083815e-02 +3.0661921242e-02 +1.5714560558e+01 1.5714647815e+01 4.9935713700e-03 0.0000e+00 0.0000e+00
       11  1    1    2    0    0 -9.4609422251e-04 +9.3891335867e-03 +8.4143230271e-02 8.4672281439e-02 5.1099893000e-04 0.0000e+00 1.0000e+00
<vert_displacement>
111.69425529534621
</vert_displacement>
</event>
<event>
 4   1200 +8.6263000e+09 2.92699500e-02 7.81665300e-03            nan
       50 -1    0    0    0    0 -2.3478042001e-03 +6.1448018785e-03 +7.7329551731e+00 7.7329595832e+00 4.9935713700e-03 0.0000e+00 0.0000e+00
       11 -1    0    0    0    0 +1.5379043761e-19 -4.0250876537e-19 -5.0653907172e-16 5.1100000000e-04 5.1099893000e-04 0.0000e+00 1.0000e+00
       50  1    1    2    0    0 +1.7883373457e-02 +2.6237153847e-02 +6.8080312863e+00 6.8081071624e+00 4.9935713700e-03 0.0000e+00 0.0000e+00
       11  1    1    2    0    0 -2.0231177658e-02 -2.0092351969e-02 +9.2492388681e-01 9.2536342087e-01 5.1099893000e-04 0.0000e+00 1.0000e+00
<vert_displacement>
288.62293076276677
</vert_displacement>
</event>
<event>
 4   1200 +8.6263000e+09 1.68465600e-02 7.81665300e-03            nan
       50 -1    0    0    0    0 -1.6786234455e-02 +4.2122781858e-03 +5.5850283901e+00 5.5850574371e+00 4.9935713700e-03 0.0000e+00 0.0000e+00
       11 -1    0    0    0    0 +1.9395412036e-18 -4.8670159612e-19 -6.4531403481e-16 5.1100000000e-04 5.1099893000e-04 0.0000e+00 1.0000e+00
       50  1    1    2    0    0 -3.6968817725e-03 +1.4395880913e-02 +5.3190087408e+00 5.3190318507e+00 4.9935713700e-03 0.0000e+00 0.0000e+00
       11  1    1    2    0    0 -1.3089352683e-02 -1.0183602727e-02 +2.6601964934e-01 2.6653658637e-01 5.1099893000e-04 0.0000e+00 1.0000e+00
<vert_displacement>
462.08493237146905
</vert_displacement>
</event>
<event>
 4   1200 +8.6263000e+09 1.64063800e-02 7.81665300e-03            nan
       50 -1    0    0    0    0 -4.7860795777e-02 +4.1942339666e-02 +2.2739546482e+01 2.2739636078e+01 4.9935713700e-03 0.0000e+00 0.0000e+00
       11 -1    0    0    0    0 -2.1030478541e-18 +1.8429853912e-18 +9.9919680932e-16 5.1100000000e-04 5.1099893000e-04 0.0000e+00 1.0000e+00
       50  1    1    2    0    0 -4.3847165172e-02 +2.6267049176e-02 +2.2498032880e+01 2.2498091496e+01 4.9935713700e-03 0.0000e+00 0.0000e+00
       11  1    1    2    0    0 -4.0136306049e-03 +1.5675290490e-02 +2.4151360143e-01 2.4205558196e-01 5.1099893000e-04 0.0000e+00 1.0000e+00
<vert_displacement>
177.51901822260263
</vert_displacement>
</event>
<event>
 4   1200 +8.6263000e+09 1.09061000e-02 7.81665300e-03            nan
       50 -1    0    0    0    0 +9.8845847288e-03 -6.8231578387e-03 +3.9347878231e+00 3.9348093231e+00 4.9935713700e-03 0.0000e+00 0.0000e+00
       11 -1    0    0    0    0 +3.8348467613e-19 -2.6471283779e-19 +1.5265495470e-16 5.1100000000e-04 5.1099893000e-04 0.0000e+00 1.0000e+00
       50  1    1    2    0    0 +1.5789053941e-03 -1.2838358084e-03 +3.8405498331e+00 3.8405536186e+00 4.9935713700e-03 0.0000e+00 0.0000e+00
       11  1    1    2    0    0 +8.3056793347e-03 -5.5393220303e-03 +9.4237990007e-02 9.4766704481e-02 5.1099893000e-04 0.0000e+00 1.0000e+00
<vert_displacement>
155.23185629370064
</vert_displacement>
</event>
<event>
 4   1200 +8.6263000e+09 9.72269800e-03 7.81665300e-03            nan
       50 -1    0    0    0    0 +7.9832633739e-02 +6.3855651950e-02 +2.7841461418e+01 2.7841649549e+01 4.9935713700e-03 0.0000e+00 0.0000e+00
       11 -1    0    0    0    0 +1.4206070335e-17 +1.1362995812e-17 +4.9543368495e-15 5.1100000000e-04 5.1099893000e-04 0.0000e+00 1.0000e+00
       50  1    1    2    0    0 +8.7611230817e-02 +6.1248634961e-02 +2.7773178884e+01 2.7773385054e+01 4.9935713700e-03 0.0000e+00 0.0000e+00
       11  1    1    2    0    0 -7.7785970774e-03 +2.6070169885e-03 +6.8282534734e-02 6.8775495489e-02 5.1099893000e-04 0.0000e+00 1.0000e+00
<vert_displacement>
105.42252200610376
</vert_displacement>
</event>
<event>
 4   1200 +8.6263000e+09 7.04898200e-03 7.81665300e-03            nan
       50 -1    0    0    0    0 +1.3089790650e-02 +4.5066963146e-03 +4.6854897666e+00 4.6855128792e+00 4.9935713700e-03 0.0000e+00 0.0000e+00
       11 -1    0    0    0    0 -3.8770022608e-19 -1.3348167490e-19 -1.3877727233e-16 5.1100000000e-04 5.1099893000e-04 0.0000e+00 1.0000e+00
       50  1    1    2    0    0 +8.0505783038e-03 +4.2845715662e-03 +4.6611545464e+00 4.6611661428e+00 4.9935713700e-03 0.0000e+00 0.0000e+00
       11  1    1    2    0    0 +5.0392123465e-03 +2.2212474838e-04 +2.4335220167e-02 2.4857736441e-02 5.1099893000e-04 0.0000e+00 1.0000e+00
<vert_displacement>
296.42699405692485
</vert_displacement>
</event>
<event>
 4   1200 +8.6263000e+09 3.42118400e-02 7.81665300e-03            nan
       50 -1    0    0    0    0 +5.4686558615e-02 +9.3687470134e-03 +1.6946220260e+01 1.6946311824e+01 4.9935713700e-03 0.0000e+00 0.0000e+00
       11 -1    0    0    0    0 -2.7318414963e-18 -4.6801138172e-19 -8.4654051900e-16 5.1100000000e-04 5.1099893000e-04 0.0000e+00 1.0000e+00
       50  1    1    2    0    0 +3.4917035829e-02 +3.8593136810e-02 +1.5739284497e+01 1.5739371336e+01 4.9935713700e-03 0.0000e+00 0.0000e+00
       11  1    1    2    0    0 +1.9769522786e-02 -2.9224389797e-02 +1.2069357630e+00 1.2074514881e+00 5.1099893000e-04 0.0000e+00 1.0000e+00
<vert_displacement>
334.28579923910365
</vert_displacement>
</event>
<event>
 4   1200 +8.6263000e+09 1.02351600e-02 7.81665300e-03            nan
       50 -1    0    0    0    0 -9.2056752511e-03 -4.5030083794e-02 +1.9454313336e+01 1.9454368270e+01 4.9935713700e-03 0.0000e+00 0.0000e+00
       11 -1    0    0    0    0 -9.5219692970e-19 -4.6577254099e-18 +2.0122736163e-15 5.1100000000e-04 5.1099893000e-04 0.0000e+00 1.0000e+00
       50  1    1    2    0    0 -8.8701092555e-03 -5.3777906501e-02 +1.9375870054e+01 1.9375947359e+01 4.9935713700e-03 0.0000e+00 0.0000e+00
       11  1    1    2    0    0 -3.3556599557e-04 +8.7478227074e-03 +7.8443281993e-02 7.8931911267e-02 5.1099893000e-04 0.0000e+00 1.0000e+00
<vert_displacement>
308.17499334504561
</vert_displacement>
</event>
<event>
 4   1200 +8.6263000e+09 1.77600100e-02 7.81665300e-03            nan
       50 -1    0    0    0    0 -2.8378052724e-02 -2.0093492854e-02 +2.5891777435e+01 2.5891801265e+01 4.9935713700e-03 0.0000e+00 0.0000e+00
       11 -1    0    0    0    0 -2.0534037261e-18 -1.4539423652e-18 +1.8734996646e-15 5.1100000000e-04 5.1099893000e-04 0.0000e+00 1.0000e+00
       50  1    1    2    0    0 -4.4551739401e-02 -1.5557151598e-02 +2.5604334290e+01 2.5604378263e+01 4.9935713700e-03 0.0000e+00 0.0000e+00
       11  1    1    2    0    0 +1.6173686677e-02 -4.5363412565e-03 +2.8744314512e-01 2.8793400169e-01 5.1099893000e-04 0.0000e+00 1.0000e+00
<vert_displacement>
188.99076338219203
</vert_displacement>
</event>
<event>
 4   1200 +8.6263000e+09 8.79574000e-03 7.81665300e-03            nan
       50 -1    0    0    0    0 +1.1841789617e-02 +5.4119769544e-03 +4.4356716821e+00 4.4356936013e+00 4.9935713700e-03 0.0000e+00 0.0000e+00
       11 -1    0    0    0    0 +8.8917565088e-19 +4.0637422944e-19 +3.3306547258e-16 5.1100000000e-04 5.1099893000e-04 0.0000e+00 1.0000e+00
       50  1    1    2    0    0 +1.7144543621e-02 +1.0125715124e-02 +4.3837339540e+00 4.3837820179e+00 4.9935713700e-03 0.0000e+00 0.0000e+00
       11  1    1    2    0    0 -5.3027540034e-03 -4.7137381699e-03 +5.1937728122e-02 5.2422583396e-02 5.1099893000e-04 0.0000e+00 1.0000e+00
<vert_displacement>
82.958593711791792
</vert_displacement>
</event>
<event>
 4   1200 +8.6263000e+09 6.38458200e-03 7.81665300e-03            nan
       50 -1    0    0    0    0 -8.9458897700e-03 +4.0285206343e-03 +1.1752324991e+01 1.1752330147e+01 4.9935713700e-03 0.0000e+00 0.0000e+00
       11 -1    0    0    0    0 -1.4261119199e-19 +6.4220792386e-20 +1.8735007012e-16 5.1100000000e-04 5.1099893000e-04 0.0000e+00 1.0000e+00
       50  1    1    2    0    0 -6.9308412972e-03 +7.4603754295e-03 +1.1736817738e+01 1.1736823218e+01 4.9935713700e-03 0.0000e+00 0.0000e+00
       11  1    1    2    0    0 -2.0150484728e-03 -3.4318547952e-03 +1.5507253490e-02 1.6017929904e-02 5.1099893000e-04 0.0000e+00 1.0000e+00
<vert_displacement>
146.43078184564712
</vert_displacement>
</event>
<event>
 4   1200 +8.6263000e+09 9.93652100e-03 7.81665300e-03            nan
       50 -1    0    0    0    0 -1.4552106857e-02 -6.6266035322e-03 +4.8137446031e+00 4.8137737499e+00 4.9935713700e-03 0.0000e+00 0.0000e+00
       11 -1    0    0    0    0 -4.1952773493e-19 -1.9104065119e-19 +1.3877711246e-16 5.1100000000e-04 5.1099893000e-04 0.0000e+00 1.0000e+00
       50  1    1    2    0    0 -1.5895939713e-02 +1.9211151151e-03 +4.7404111277e+00 4.7404407988e+00 4.9935713700e-03 0.0000e+00 0.0000e+00
       11  1    1    2    0    0 +1.3438328561e-03 -8.5477186473e-03 +7.3333475405e-02 7.3843951112e-02 5.1099893000e-04 0.0000e+00 1.0000e+00
<vert_displacement>
304.98190094438672
</vert_displacement>
</event>
<event>
 4   1200 +8.6263000e+09 1.75744800e-02 7.81665300e-03            nan
       50 -1    0    0    0    0 +1.9934628136e-02 +1.0957258280e-02 +6.6924397042e+00 6.6924802265e+00 4.9935713700e-03 0.0000e+00 0.0000e+00
       11 -1    0    0    0    0 -1.5708148645e-18 -8.6341335603e-19 -5.2735289041e-16 5.1100000000e-04 5.1099893000e-04 0.0000e+00 1.0000e+00
       50  1    1    2    0    0 +1.2178835525e-02 -4.8951188827e-03 +6.4019968806e+00 6.4020122838e+00 4.9935713700e-03 0.0000e+00 0.0000e+00
       11  1    1    2    0    0 +7.7557926112e-03 +1.5852377163e-02 +2.9044282362e-01 2.9097894270e-01 5.1099893000e-04 0.0000e+00 1.0000e+00
<vert_displacement>
86.307554805710069
</vert_displacement>
</event>
<event>
 4   1200 +8.6263000e+09 1.07235800e-02 7.81665300e-03            nan
       50 -1    0    0    0    0 -4.6677927611e-02 -2.2220742814e-02 +2.7294488533e+01 2.7294537948e+01 4.9935713700e-03 0.0000e+00 0.0000e+00
       11 -1    0    0    0    0 +7.1199562357e-18 +3.3894117511e-18 -4.1633288745e-15 5.1100000000e-04 5.1099893000e-04 0.0000e+00 1.0000e+00
       50  1    1    2    0    0 -5.5933479104e-02 -2.0894803341e-02 +2.7206064512e+01 2.7206130491e+01 4.9935713700e-03 0.0000e+00 0.0000e+00
       11  1    1    2    0    0 +9.2555514928e-03 -1.3259394735e-03 +8.8424020698e-02 8.8918456494e-02 5.1099893000e-04 0.0000e+00 1.0000e+00
<vert_displacement>
180.11165679523162
</vert_displacement>
</event>
<event>
 4   1200 +8.6263000e+09 1.08202600e-02 7.81665300e-03            nan
       50 -1    0    0    0    0 +1.2315615374e-03 -2.8957590821e-02 +1.4298683182e+01 1.4298713429e+01 4.9935713700e-03 0.0000e+00 0.0000e+00
       11 -1    0    0    0    0 -4.1835741275e-20 +9.8367985742e-19 -4.8572157540e-16 5.1100000000e-04 5.1099893000e-04 0.0000e+00 1.0000e+00
       50  1    1    2    0    0 +1.0784637834e-02 -2.7918423082e-02 +1.4207945381e+01 1.4207977781e+01 4.9935713700e-03 0.0000e+00 0.0000e+00
       11  1    1    2    0    0 -9.5530762969e-03 -1.0391677395e-03 +9.0737800604e-02 9.1246647691e-02 5.1099893000e-04 0.0000e+00 1.0000e+00
<vert_displacement>
465.22349327547244
</vert_displacement>
</event>
<event>
 4   1200 +8.6263000e+09 5.22187400e-03 7.81665300e-03            nan
       50 -1    0    0    0    0 +6.6365451135e-02 +8.8143780906e-03 +2.2007656861e+01 2.2007759257e+01 4.9935713700e-03 0.0000e+00 0.0000e+00
       11 -1    0    0    0    0 -3.8919694880e-18 -5.1691490071e-19 -1.2906282944e-15 5.1100000000e-04 5.1099893000e-04 0.0000e+00 -1.0000e+00
       50  1    1    2    0    0 +6.4971231618e-02 +9.4518140235e-03 +2.2005378504e+01 2.2005477015e+01 4.9935713700e-03 0.0000e+00 0.0000e+00
       11  1    1    2    0    0 +1.3942195177e-03 -6.3743593292e-04 +2.2783568204e-03 2.7932422630e-03 5.1099893000e-04 0.0000e+00 -1.0000e+00
<vert_displacement>
15.655033082756798
</vert_displacement>
</event>
<event>
 4   1200 +8.6263000e+09 6.26176900e-03 7.81665300e-03            nan
       50 -1    0    0    0    0 +6.3162408256e-02 -1.5684980823e-03 +2.5752811423e+01 2.5752889412e+01 4.9935713700e-03 0.0000e+00 0.0000e+00
       11 -1    0    0    0    0 -6.2628324264e-18 +1.5552352930e-19 -2.5535052717e-15 5.1100000000e-04 5.1099893000e-04 0.0000e+00 1.0000e+00
       50  1    1    2    0    0 +5.9351125675e-02 -1.4775100726e-03 +2.5738846136e+01 2.5738915091e+01 4.9935713700e-03 0.0000e+00 0.0000e+00
       11  1    1    2    0    0 +3.8112825802e-03 -9.0988009745e-05 +1.3965287395e-02 1.4485321041e-02 5.1099893000e-04 0.0000e+00 1.0000e+00
<vert_displacement>
311.67979463209946
</vert_displacement>
</event>
<event>
 4   1200 +8.6263000e+09 7.63036200e-03 7.81665300e-03            nan
       50 -1    0    0    0    0 -2.2092433630e-02 +1.0537673721e-04 +8.5754543137e+00 8.5754842259e+00 4.9935713700e-03 0.0000e+00 0.0000e+00
       11 -1    0    0    0    0 +1.1977054618e-18 -5.7128289177e-21 -4.6490434874e-16 5.1100000000e-04 5.1099893000e-04 0.0000e+00 1.0000e+00
       50  1    1    2    0    0 -2.7490937485e-02 +1.9010913562e-03 +8.5427431896e+00 8.5427890941e+00 4.9935713700e-03 0.0000e+00 0.0000e+00
       11  1    1    2    0    0 +5.3985038549e-03 -1.7957146190e-03 +3.2711124007e-02 3.3206131792e-02 5.1099893000e-04 0.0000e+00 1.0000e+00
<vert_displacement>
257.13439680903952
</vert_displacement>
</event>
<event>
 4   1200 +8.6263000e+09 2.12976800e-02 7.81665300e-03            nan
       50 -1    0    0    0    0 -1.6945179776e-01 +1.1089375479e-01 +5.5792733446e+01 5.5793101201e+01 4.9935713700e-03 0.0000e+00 0.0000e+00
       11 -1    0    0    0    0 +1.0537217200e-18 -6.8958346607e-19 -3.4694240973e-16 5.1100000000e-04 5.1099893000e-04 0.0000e+00 1.0000e+00
       50  1    1    2    0    0 -1.4865432910e-01 +1.0313569567e-01 +5.5370174491e+01 5.5370470317e+01 4.9935713700e-03 0.0000e+00 0.0000e+00
       11  1    1    2    0    0 -2.0797468662e-02 +7.7580591171e-03 +4.2255895507e-01 4.2314188379e-01 5.1099893000e-04 0.0000e+00 1.0000e+00
<vert_displacement>
11.368033856209793
</vert_displacement>
</event>
<event>
 4   1200 +8.6263000e+09 2.72832100e-02 7.81665300e-03            nan
       50 -1    0    0    0    0 +1.4890912115e-02 -2.7039656299e-03 +4.2923963267e+00 4.2924259122e+00 4.9935713700e-03 0.0000e+00 0.0000e+00
       11 -1    0    0    0    0 +1.6850278125e-19 -3.0597570218e-20 +4.8571955411e-17 5.1100000000e-04 5.1099893000e-04 0.0000e+00 1.0000e+00
       50  1    1    2    0    0 +2.1680969687e-02 +2.2794523423e-02 +3.4030564943e+00 3.4032055615e+00 4.9935713700e-03 0.0000e+00 0.0000e+00
       11  1    1    2    0    0 -6.7900575719e-03 -2.5498489052e-02 +8.8933983240e-01 8.8973135071e-01 5.1099893000e-04 0.0000e+00 1.0000e+00
<vert_displacement>
198.90759791496123
</vert_displacement>
</event>
<event>
 4   1200 +8.6263000e+09 3.39238900e-02 7.81665300e-03            nan
       50 -1    0    0    0    0 -9.2610460337e-04 +1.3419699454e-02 +6.7614170847e+00 6.7614323094e+00 4.9935713700e-03 0.0000e+00 0.0000e+00
       11 -1    0    0    0    0 -4.3718931149e-20 +6.3350826068e-19 +3.1918848791e-16 5.1100000000e-04 5.1099893000e-04 0.0000e+00 1.0000e+00
       50  1    1    2    0    0 -5.2979621019e-03 -2.2576815286e-02 +5.3740114140e+00 5.3740637691e+00 4.9935713700e-03 0.0000e+00 0.0000e+00
       11  1    1    2    0    0 +4.3718574985e-03 +3.5996514741e-02 +1.3874056707e+00 1.3878795403e+00 5.1099893000e-04 0.0000e+00 1.0000e+00
<vert_displacement>
416.89195284723746
</vert_displacement>
</event>
<event>
 4   1200 +8.6263000e+09 1.73362100e-02 7.81665300e-03            nan
       50 -1    0    0    0    0 +2.7454677996e-02 +4.8258494522e-03 +1.5093659642e+01 1.5093686208e+01 4.9935713700e-03 0.0000e+00 0.0000e+00
       11 -1    0    0    0    0 -2.8524612119e-18 -5.0139172563e-19 -1.5681873479e-15 5.1100000000e-04 5.1099893000e-04 0.0000e+00 1.0000e+00
       50  1    1    2    0    0 +1.0713323117e-02 +8.1752949156e-03 +1.4818996544e+01 1.4819003513e+01 4.9935713700e-03 0.0000e+00 0.0000e+00
       11  1    1    2    0    0 +1.6741354879e-02 -3.3494454634e-03 +2.7466309741e-01 2.7519369533e-01 5.1099893000e-04 0.0000e+00 1.0000e+00
<vert_displacement>
494.29828779955704
</vert_displacement>
</event>
<event>
 4   1200 +8.6263000e+09 6.89896900e-03 7.81665300e-03            nan
       50 -1    0    0    0    0 -5.2425723781e-03 +1.5888840346e-03 +3.4734967240e+00 3.4735046332e+00 4.9935713700e-03 0.0000e+00 0.0000e+00
       11 -1    0    0    0    0 +9.9492616827e-20 -3.0153561847e-20 -6.5919410108e-17 5.1100000000e-04 5.1099893000e-04 0.0000e+00 1.0000e+00
       50  1    1    2    0    0 -7.7414902269e-03 +5.6092941548e-03 +3.4511711519e+00 3.4511880057e+00 4.9935713700e-03 0.0000e+00 0.0000e+00
       11  1    1    2    0    0 +2.4989178488e-03 -4.0204101201e-03 +2.2325572099e-02 2.2827627503e-02 5.1099893000e-04 0.0000e+00 1.0000e+00
<vert_displacement>
297.69257969943584
</vert_displacement>
</event>
<event>
 4   1200 +8.6263000e+09 6.70760900e-03 7.81665300e-03            nan
       50 -1    0    0    0    0 +3.1066004982e-02 +1.7976916060e-02 +1.5296991403e+01 1.5297034326e+01 4.9935713700e-03 0.0000e+00 0.0000e+00
       11 -1    0    0    0    0 +2.3956168438e-19 +1.3862678171e-19 +1.1796087165e-16 5.1100000000e-04 5.1099893000e-04 0.0000e+00 1.0000e+00
       50  1    1    2    0    0 +3.3372736678e-02 +2.1768198962e-02 +1.5277331746e+01 1.5277384522e+01 4.9935713700e-03 0.0000e+00 0.0000e+00
       11  1    1    2    0    0 -2.3067316968e-03 -3.7912829019e-03 +1.9659656112e-02 2.0160804437e-02 5.1099893000e-04 0.0000e+00 1.0000e+00
<vert_displacement>
99.893517099455607
</vert_displacement>
</event>
<event>
 4   1200 +8.6263000e+09 1.14385500e-02 7.81665300e-03            nan
       50 -1    0    0    0    0 -1.0423125475e-02 +4.0788818866e-03 +4.6709171723e+00 4.6709332520e+00 4.9935713700e-03 0.0000e+00 0.0000e+00
       11 -1    0    0    0    0 +1.9355072972e-18 -7.5742210670e-19 -8.6735924775e-16 5.1100000000e-04 5.1099893000e-04 0.0000e+00 1.0000e+00
       50  1    1    2    0    0 -1.1132889633e-03 -8.6982158044e-04 +4.5648851204e+00 4.5648880702e+00 4.9935713700e-03 0.0000e+00 0.0000e+00
       11  1    1    2    0    0 -9.3098365122e-03 +4.9487034671e-03 +1.0603205189e-01 1.0655618175e-01 5.1099893000e-04 0.0000e+00 1.0000e+00
<vert_displacement>
265.95645014472353
</vert_displacement>
</event>
<event>
 4   1200 +8.6263000e+09 1.20123200e-02 7.81665300e-03            nan
       50 -1    0    0    0    0 -1.9237358049e-02 +2.1051484682e-02 +1.2157677488e+01 1.2157711959e+01 4.9935713700e-03 0.0000e+00 0.0000e+00
       11 -1    0    0    0    0 -1.2077486127e-19 +1.3216420548e-19 +7.6327622967e-17 5.1100000000e-04 5.1099893000e-04 0.0000e+00 1.0000e+00
       50  1    1    2    0    0 -2.7893117321e-02 +2.7263781083e-02 +1.2039710741e+01 1.2039774956e+01 4.9935713700e-03 0.0000e+00 0.0000e+00
       11  1    1    2    0    0 +8.6557592715e-03 -6.2122964019e-03 +1.1796674772e-01 1.1844800329e-01 5.1099893000e-04 0.0000e+00 1.0000e+00
<vert_displacement>
154.77841458259488
</vert_displacement>
</event>
<event>
 4   1200 +8.6263000e+09 3.35946400e-02 7.81665300e-03            nan
       50 -1    0    0    0    0 -3.8039875511e-02 -4.5870279159e-02 +2.1821026261e+01 2.1821108201e+01 4.9935713700e-03 0.0000e+00 0.0000e+00
       11 -1    0    0    0    0 +1.1854373823e-18 +1.4294564039e-18 -6.8000906688e-16 5.1100000000e-04 5.1099893000e-04 0.0000e+00 1.0000e+00
       50  1    1    2    0    0 -2.9375928460e-03 -4.6121254730e-02 +2.0681580241e+01 2.0681632479e+01 4.9935713700e-03 0.0000e+00 0.0000e+00
       11  1    1    2    0    0 -3.5102282665e-02 +2.5097557092e-04 +1.1394460201e+00 1.1399867223e+00 5.1099893000e-04 0.0000e+00 1.0000e+00
<vert_displacement>
441.52889385048661
</vert_displacement>
</event>
<event>
 4   1200 +8.6263000e+09 6.15967500e-03 7.81665300e-03            nan
       50 -1    0    0    0    0 -6.0051931965e-03 +9.0981726500e-03 +4.0795780184e+00 4.0795956397e+00 4.9935713700e-03 0.0000e+00 0.0000e+00
       11 -1    0    0    0    0 +2.0428215617e-20 -3.0949784051e-20 -1.3877738261e-17 5.1100000000e-04 5.1099893000e-04 0.0000e+00 1.0000e+00
       50  1    1    2    0    0 -5.1611227670e-03 +5.5590468319e-03 +4.0668194414e+00 4.0668295814e+00 4.9935713700e-03 0.0000e+00 0.0000e+00
       11  1    1    2    0    0 -8.4407042957e-04 +3.5391258181e-03 +1.2758577048e-02 1.3277058207e-02 5.1099893000e-04 0.0000e+00 1.0000e+00
<vert_displacement>
257.70181035806684
</vert_displacement>
</event>
<event>
 4   1200 +8.6263000e+09 1.04909500e-02 7.81665300e-03            nan
       50 -1    0    0    0    0 +1.0184891536e-02 -2.8489433803e-02 +1.1241919139e+01 1.1241960961e+01 4.9935713700e-03 0.0000e+00 0.0000e+00
       11 -1    0    0    0    0 +1.0812673082e-18 -3.0245480074e-18 +1.1934854293e-15 5.1100000000e-04 5.1099893000e-04 0.0000e+00 1.0000e+00
       50  1    1    2    0    0 +1.8772620659e-02 -3.1449023604e-02 +1.1157980025e+01 1.1158041254e+01 4.9935713700e-03 0.0000e+00 0.0000e+00
       11  1    1    2    0    0 -8.5877291232e-03 +2.9595898015e-03 +8.3939114506e-02 8.4430707253e-02 5.1099893000e-04 0.0000e+00 1.0000e+00
<vert_displacement>
379.42976079181813
</vert_displacement>
</event>
<event>
 4   1200 +8.6263000e+09 1.32209000e-02 7.81665300e-03            nan
       50 -1    0    0    0    0 +2.6017289521e-02 -1.8761599917e-02 +1.7101853537e+01 1.7101884347e+01 4.9935713700e-03 0.0000e+00 0.0000e+00
       11 -1    0    0    0    0 +3.5891141194e-19 -2.5881836426e-19 +2.3592197776e-16 5.1100000000e-04 5.1099893000e-04 0.0000e+00 1.0000e+00
       50  1    1    2    0    0 +2.3965590787e-02 -6.4948065783e-03 +1.6953953746e+01 1.6953972664e+01 4.9935713700e-03 0.0000e+00 0.0000e+00
       11  1    1    2    0    0 +2.0516987341e-03 -1.2266793339e-02 +1.4789979066e-01 1.4842268319e-01 5.1099893000e-04 0.0000e+00 1.0000e+00
<vert_displacement>
304.41376467675894
</vert_displacement>
</event>
<event>
 4   1200 +8.6263000e+09 1.08875600e-02 7.81665300e-03            nan
       50 -1    0    0    0    0 -3.7430528495e-02 +1.5688321543e-02 +1.7309235224e+01 1.7309283525e+01 4.9935713700e-03 0.0000e+00 0.0000e+00
       11 -1    0    0    0    0 -1.8306147753e-18 +7.6726870740e-19 +8.4654272926e-16 5.1100000000e-04 5.1099893000e-04 0.0000e+00 1.0000e+00
       50  1    1    2    0    0 -4.0838744909e-02 +6.6276520923e-03 +1.7217154302e+01 1.7217204736e+01 4.9935713700e-03 0.0000e+00 0.0000e+00
       11  1    1    2    0    0 +3.4082164134e-03 +9.0606694506e-03 +9.2080921795e-02 9.2589788576e-02 5.1099893000e-04 0.0000e+00 1.0000e+00
<vert_displacement>
202.74301469904535
</vert_displacement>
</event>
<event>
 4   1200 +8.6263000e+09 9.27964800e-03 7.81665300e-03            nan
       50 -1    0    0    0    0 +3.4511085693e-03 -9.3673919687e-03 +4.3305304967e+00 4.3305448822e+00 4.9935713700e-03 0.0000e+00 0.0000e+00
       11 -1    0    0    0    0 -1.5483339810e-19 +4.2026644504e-19 -1.9428851307e-16 5.1100000000e-04 5.1099893000e-04 0.0000e+00 1.0000e+00
       50  1    1    2    0    0 +6.9142330632e-03 -2.2471082181e-03 +4.2698204798e+00 4.2698295893e+00 4.9935713700e-03 0.0000e+00 0.0000e+00
       11  1    1    2    0    0 -3.4631244938e-03 -7.1202837506e-03 +6.0710016894e-02 6.1226292907e-02 5.1099893000e-04 0.0000e+00 1.0000e+00
<vert_displacement>
447.71504152806358
</vert_displacement>
</event>
<event>
 4   1200 +8.6263000e+09 3.23811900e-02 7.81665300e-03            nan
       50 -1    0    0    0    0 -1.5736475785e-03 -6.4838910511e-03 +6.8666230267e+00 6.8666280840e+00 4.9935713700e-03 0.0000e+00 0.0000e+00
       11 -1    0    0    0    0 -8.5871307215e-20 -3.5381505238e-19 +3.7470009392e-16 5.1100000000e-04 5.1099893000e-04 0.0000e+00 1.0000e+00
       50  1    1    2    0    0 -8.1596129461e-03 +2.5915451928e-02 +5.6479467759e+00 5.6480143333e+00 4.9935713700e-03 0.0000e+00 0.0000e+00
       11  1    1    2    0    0 +6.5859653676e-03 -3.2399342979e-02 +1.2186762508e+00 1.2191247507e+00 5.1099893000e-04 0.0000e+00 1.0000e+00
<vert_displacement>
316.32056863863176
</vert_displacement>
</event>
<event>
 4   1200 +8.6263000e+09 2.50368100e-02 7.81665300e-03            nan
       50 -1    0    0    0    0 -8.4958464252e-03 +2.7358396254e-02 +1.2177534243e+01 1.2177568963e+01 4.9935713700e-03 0.0000e+00 0.0000e+00
       11 -1    0    0    0    0 +6.8742398904e-19 -2.2136485225e-18 -9.8532020794e-16 5.1100000000e-04 5.1099893000e-04 0.0000e+00 -1.0000e+00
       50  1    1    2    0    0 +1.3454885149e-02 +1.4178720888e-02 +1.1556906196e+01 1.1556923805e+01 4.9935713700e-03 0.0000e+00 0.0000e+00
       11  1    1    2    0    0 -2.1950731574e-02 +1.3179675365e-02 +6.2062804718e-01 6.2115615792e-01 5.1099893000e-04 0.0000e+00 -1.0000e+00
<vert_displacement>
407.52994530005520
</vert_displacement>
</event>
<event>
 4   1200 +8.6263000e+09 9.88121100e-03 7.81665300e-03            nan
       50 -1    0    0    0    0 +5.0186342132e-04 -7.9072519549e-03 +1.5782574752e+01 1.5782577530e+01 4.9935713700e-03 0.0000e+00 0.0000e+00
       11 -1    0    0    0    0 +1.9858223298e-20 -3.1288188843e-19 +6.2450037266e-16 5.1100000000e-04 5.1099893000e-04 0.0000e+00 1.0000e+00
       50  1    1    2    0    0 -7.7149641111e-03 -5.5859145729e-03 +1.5711112223e+01 1.5711115903e+01 4.9935713700e-03 0.0000e+00 0.0000e+00
       11  1    1    2    0    0 +8.2168275324e-03 -2.3213373820e-03 +7.1462528838e-02 7.1972626809e-02 5.1099893000e-04 0.0000e+00 1.0000e+00
<vert_displacement>
192.74846658080014
</vert_displacement>
</event>
<event>
 4   1200 +8.6263000e+09 3.54698700e-02 7.81665300e-03            nan
       50 -1    0    0    0    0 +9.2050935238e-02 -4.1318247460e-02 +3.2314835794e+01 3.2314993701e+01 4.9935713700e-03 0.0000e+00 0.0000e+00
       11 -1    0    0    0    0 +4.0322230642e-18 -1.8099152382e-18 +1.4155274563e-15 5.1100000000e-04 5.1099893000e-04 0.0000e+00 1.0000e+00
       50  1    1    2    0    0 +5.3375838499e-02 -3.8601187720e-02 +3.1059482313e+01 3.1059552565e+01 4.9935713700e-03 0.0000e+00 0.0000e+00
       11  1    1    2    0    0 +3.8675096739e-02 -2.7170597397e-03 +1.2553534812e+00 1.2559521365e+00 5.1099893000e-04 0.0000e+00 1.0000e+00
<vert_displacement>
119.39676937135846
</vert_displacement>
</event>
<event>
 4   1200 +8.6263000e+09 1.70539800e-02 7.81665300e-03            nan
       50 -1    0    0    0    0 +1.8419871394e-03 -9.3930200900e-03 +5.7176625314e+00 5.7176727241e+00 4.9935713700e-03 0.0000e+00 0.0000e+00
       11 -1    0    0    0    0 -1.4977265073e-19 +7.6374991286e-19 -4.6490524009e-16 5.1100000000e-04 5.1099893000e-04 0.0000e+00 1.0000e+00
       50  1    1    2    0    0 +6.9502006811e-03 -2.4400415772e-02 +5.4443129680e+00 5.4443743731e+00 4.9935713700e-03 0.0000e+00 0.0000e+00
       11  1    1    2    0    0 -5.1082135417e-03 +1.5007395682e-02 +2.7334956343e-01 2.7380935104e-01 5.1099893000e-04 0.0000e+00 1.0000e+00
<vert_displacement>
17.805789402845864
</vert_displacement>
</event>
<event>
 4   1200 +8.6263000e+09 1.58448200e-02 7.81665300e-03            nan
       50 -1    0    0    0    0 -6.2009268698e-03 +1.0919490627e-02 +5.6292300181e+00 5.6292462390e+00 4.9935713700e-03 0.0000e+00 0.0000e+00
       11 -1    0    0    0    0 +8.4079373390e-20 -1.4805914485e-19 -7.6327643033e-17 5.1100000000e-04 5.1099893000e-04 0.0000e+00 1.0000e+00
       50  1    1    2    0    0 +8.6158727661e-03 +6.7230715827e-03 +5.3984771548e+00 5.3984905260e+00 4.9935713700e-03 0.0000e+00 0.0000e+00
       11  1    1    2    0    0 -1.4816799636e-02 +4.1964190438e-03 +2.3075286326e-01 2.3126671293e-01 5.1099893000e-04 0.0000e+00 1.0000e+00
<vert_displacement>
103.97041380738321
</vert_displacement>
</event>
<event>
 4   1200 +8.6263000e+09 6.94582400e-03 7.81665300e-03            nan
       50 -1    0    0    0    0 -1.7385356340e-02 +6.4422336465e-03 +5.3764319997e+00 5.3764662871e+00 4.9935713700e-03 0.0000e+00 0.0000e+00
       11 -1    0    0    0    0 -3.5900218089e-19 +1.3303011360e-19 +1.1102164232e-16 5.1100000000e-04 5.1099893000e-04 0.0000e+00 1.0000e+00
       50  1    1    2    0    0 -2.1349493513e-02 +3.7687558120e-03 +5.3535150770e+00 5.3535613025e+00 4.9935713700e-03 0.0000e+00 0.0000e+00
       11  1    1    2    0    0 +3.9641371725e-03 +2.6734778345e-03 +2.2916922725e-02 2.3415984591e-02 5.1099893000e-04 0.0000e+00 1.0000e+00
<vert_displacement>
330.89494759734237
</vert_displacement>
</event>
<event>
 4   1200 +8.6263000e+09 1.18319600e-02 7.81665300e-03            nan
       50 -1    0    0    0    0 -2.5849658325e-02 -2.7291511446e-02 +2.6464893871e+01 2.6464921039e+01 4.9935713700e-03 0.0000e+00 0.0000e+00
       11 -1    0    0    0    0 -5.4220615885e-19 -5.7244956217e-19 +5.5511095235e-16 5.1100000000e-04 5.1099893000e-04 0.0000e+00 1.0000e+00
       50  1    1    2    0    0 -1.6954249238e-02 -2.1019948377e-02 +2.6351840563e+01 2.6351854874e+01 4.9935713700e-03 0.0000e+00 0.0000e+00
       11  1    1    2    0    0 -8.8954090870e-03 -6.2715630690e-03 +1.1305330824e-01 1.1357716509e-01 5.1099893000e-04 0.0000e+00 1.0000e+00
<vert_displacement>
257.60795830096936
</vert_displacement>
</event>
<event>
 4   1200 +8.6263000e+09 2.61043000e-02 7.81665300e-03            nan
       50 -1    0    0    0    0 -7.7656224156e-02 -1.1034097160e-02 +2.7541832279e+01 2.7541944420e+01 4.9935713700e-03 0.0000e+00 0.0000e+00
       11 -1    0    0    0    0 +8.4910550486e-18 +1.2064857314e-18 -3.0114677421e-15 5.1100000000e-04 5.1099893000e-04 0.0000e+00 1.0000e+00
       50  1    1    2    0    0 -5.3440890145e-02 +1.7410213170e-03 +2.6883784866e+01 2.6883838503e+01 4.9935713700e-03 0.0000e+00 0.0000e+00
       11  1    1    2    0    0 -2.4215334012e-02 -1.2775118477e-02 +6.5804741253e-01 6.5861691772e-01 5.1099893000e-04 0.0000e+00 1.0000e+00
<vert_displacement>
215.17982422375738
</vert_displacement>
</event>
<event>
 4   1200 +8.6263000e+09 2.57064900e-02 7.81665300e-03            nan
       50 -1    0    0    0    0 -3.1435991694e-02 -2.3788076470e-03 +1.6235471479e+01 1.6235502855e+01 4.9935713700e-03 0.0000e+00 0.0000e+00
       11 -1    0    0    0    0 -3.2245040770e-18 -2.4400295785e-19 +1.6653313973e-15 5.1100000000e-04 5.1099893000e-04 0.0000e+00 1.0000e+00
       50  1    1    2    0    0 -5.5262130902e-02 +3.2855113582e-04 +1.5587293361e+01 1.5587392125e+01 4.9935713700e-03 0.0000e+00 0.0000e+00
       11  1    1    2    0    0 +2.3826139208e-02 -2.7073587829e-03 +6.4817811805e-01 6.4862172994e-01 5.1099893000e-04 0.0000e+00 1.0000e+00
<vert_displacement>
240.00494725985970
</vert_displacement>
</event>
<event>
 4   1200 +8.6263000e+09 2.73090400e-02 7.81665300e-03            nan
       50 -1    0    0    0    0 +1.5227066393e-02 -4.1453591828e-03 +5.5231622433e+00 5.5231870464e+00 4.9935713700e-03 0.0000e+00 0.0000e+00
       11 -1    0    0    0    0 -1.1478051400e-19 +3.1247414666e-20 -4.1633193476e-17 5.1100000000e-04 5.1099893000e-04 0.0000e+00 1.0000e+00
       50  1    1    2    0    0 +3.2622421011e-02 +1.4734750835e-02 +4.6921646137e+00 4.6923038087e+00 4.9935713700e-03 0.0000e+00 0.0000e+00
       11  1    1    2    0    0 -1.7395354618e-02 -1.8880110018e-02 +8.3099762961e-01 8.3139423768e-01 5.1099893000e-04 0.0000e+00 1.0000e+00
<vert_displacement>
350.02749988724577
</vert_displacement>
</event>
<event>
 4   1200 +8.6263000e+09 1.30046900e-02 7.81665300e-03            nan
       50 -1    0    0    0    0 +1.8602512444e-02 +2.0870306657e-03 +6.4053886802e+00 6.4054179793e+00 4.9935713700e-03 0.0000e+00 0.0000e+00
       11 -1    0    0    0    0 -6.2470675526e-19 -7.0086347703e-20 -2.1510479247e-16 5.1100000000e-04 5.1099893000e-04 0.0000e+00 1.0000e+00
       50  1    1    2    0    0 +1.8194171984e-02 +1.4047746712e-02 +6.2610259322e+00 6.2610701183e+00 4.9935713700e-03 0.0000e+00 0.0000e+00
       11  1    1    2    0    0 +4.0834045984e-04 -1.1960716047e-02 +1.4436274800e-01 1.4485886096e-01 5.1099893000e-04 0.0000e+00 1.0000e+00
<vert_displacement>
470.74989830058956
</vert_displacement>
</event>
<event>
 4   1200 +8.6263000e+09 1.23393400e-02 7.81665300e-03            nan
       50 -1    0    0    0    0 -3.9449526789e-02 +2.3507409162e-02 +2.7282940272e+01 2.7282979377e+01 4.9935713700e-03 0.0000e+00 0.0000e+00
       11 -1    0    0    0    0 -3.4714935009e-18 +2.0686133592e-18 +2.4008538898e-15 5.1100000000e-04 5.1099893000e-04 0.0000e+00 1.0000e+00
       50  1    1    2    0    0 -3.0335958883e-02 +1.6505233599e-02 +2.7157799642e+01 2.7157822060e+01 4.9935713700e-03 0.0000e+00 0.0000e+00
       11  1    1    2    0    0 -9.1135679055e-03 +7.0021755636e-03 +1.2514063007e-01 1.2566831739e-01 5.1099893000e-04 0.0000e+00 1.0000e+00
<vert_displacement>
24.630078545635865
</vert_displacement>
</event>
<event>
 4   1200 +8.6263000e+09 1.90836500e-02 7.81665300e-03            nan
       50 -1    0    0    0    0 +4.1096154621e-02 -6.5480657203e-03 +1.3674775370e+01 1.3674839602e+01 4.9935713700e-03 0.0000e+00 0.0000e+00
       11 -1    0    0    0    0 -6.4644401007e-19 +1.0300131245e-19 -2.1510471500e-16 5.1100000000e-04 5.1099893000e-04 0.0000e+00 1.0000e+00
       50  1    1    2    0    0 +2.2775660774e-02 -1.2713467926e-02 +1.3334375480e+01 1.3334401927e+01 4.9935713700e-03 0.0000e+00 0.0000e+00
       11  1    1    2    0    0 +1.8320493847e-02 +6.1654022054e-03 +3.4039989030e-01 3.4094867519e-01 5.1099893000e-04 0.0000e+00 1.0000e+00
<vert_displacement>
139.01159460012144
</vert_displacement>
</event>
<event>
 4   1200 +8.6263000e+09 5.41625200e-03 7.81665300e-03            nan
       50 -1    0    0    0    0 +1.2773619883e-01 +7.5894876632e-02 +5.0778140541e+01 5.0778358168e+01 4.9935713700e-03 0.0000e+00 0.0000e+00
       11 -1    0    0    0    0 -4.8525540210e-18 -2.8831607027e-18 -1.9290042472e-15 5.1100000000e-04 5.1099893000e-04 0.0000e+00 1.0000e+00
       50  1    1    2    0    0 +1.2827080008e-01 +7.3862969565e-02 +5.0773836489e+01 5.0774052487e+01 4.9935713700e-03 0.0000e+00 0.0000e+00
       11  1    1    2    0    0 -5.3460125106e-04 +2.0319070670e-03 +4.3040514990e-03 4.8166818495e-03 5.1099893000e-04 0.0000e+00 1.0000e+00
<vert_displacement>
455.07843406293728
</vert_displacement>
</event>
<event>
 4   1200 +8.6263000e+09 1.73823200e-02 7.81665300e-03            nan
       50 -1    0    0    0    0 +6.6453322428e-02 +2.0356054305e-02 +4.6637010194e+01 4.6637062248e+01 4.9935713700e-03 0.0000e+00 0.0000e+00
       11 -1    0    0    0    0 -1.3051177439e-18 -3.9978509273e-19 -9.1593297823e-16 5.1100000000e-04 5.1099893000e-04 0.0000e+00 -1.0000e+00
       50  1    1    2    0    0 +5.6049460775e-02 +3.3537608381e-02 +4.6364177087e+01 4.6364223365e+01 4.9935713700e-03 0.0000e+00 0.0000e+00
       11  1    1    2    0    0 +1.0403861652e-02 -1.3181554076e-02 +2.7283310655e-01 2.7334988358e-01 5.1099893000e-04 0.0000e+00 -1.0000e+00
<vert_displacement>
34.675279021217619
</vert_displacement>
</event>
<event>
 4   1200 +8.6263000e+09 1.50983300e-02 7.81665300e-03            nan
       50 -1    0    0    0    0 +9.6241206044e-03 +1.0529939851e-03 +4.0274620069e+00 4.0274767392e+00 4.9935713700e-03 0.0000e+00 0.0000e+00
       11 -1    0    0    0    0 -9.9487804569e-19 -1.0885156588e-19 -4.1633243131e-16 5.1100000000e-04 5.1099893000e-04 0.0000e+00 1.0000e+00
       50  1    1    2    0    0 -4.3549054459e-03 +5.6204920942e-03 +3.8178351697e+00 3.8178450563e+00 4.9935713700e-03 0.0000e+00 0.0000e+00
       11  1    1    2    0    0 +1.3979026050e-02 -4.5674981091e-03 +2.0962683714e-01 2.1014268290e-01 5.1099893000e-04 0.0000e+00 1.0000e+00
<vert_displacement>
266.87395195003637
</vert_displacement>
</event>
<event>
 4   1200 +8.6263000e+09 1.36778300e-02 7.81665300e-03            nan
       50 -1    0    0    0    0 -1.9148208282e-02 -1.6594061333e-02 +6.5913007879e+00 6.5913513811e+00 4.9935713700e-03 0.0000e+00 0.0000e+00
       11 -1    0    0    0    0 -9.0710291826e-19 -7.8610600217e-19 +3.1224791855e-16 5.1100000000e-04 5.1099893000e-04 0.0000e+00 1.0000e+00
       50  1    1    2    0    0 -1.9454414844e-02 -2.8894269461e-02 +6.4285679208e+00 6.4286642315e+00 4.9935713700e-03 0.0000e+00 0.0000e+00
       11  1    1    2    0    0 +3.0620656191e-04 +1.2300208127e-02 +1.6273286711e-01 1.6319814963e-01 5.1099893000e-04 0.0000e+00 1.0000e+00
<vert_displacement>
372.60664636672072
</vert_displacement>
</event>
<event>
 4   1200 +8.6263000e+09 1.83337400e-02 7.81665300e-03            nan
       50 -1    0    0    0    0 +2.0632112067e-02 -2.8156101583e-02 +1.1085943715e+01 1.1085999794e+01 4.9935713700e-03 0.0000e+00 0.0000e+00
       11 -1    0    0    0    0 +3.1251759902e-18 -4.2648456133e-18 +1.6792040007e-15 5.1100000000e-04 5.1099893000e-04 0.0000e+00 1.0000e+00
       50  1    1    2    0    0 +3.7082921937e-02 -3.1945994089e-02 +1.0772518100e+01 1.0772630452e+01 4.9935713700e-03 0.0000e+00 0.0000e+00
       11  1    1    2    0    0 -1.6450809870e-02 +3.7898925062e-03 +3.1342561446e-01 3.1388034241e-01 5.1099893000e-04 0.0000e+00 1.0000e+00
<vert_displacement>
172.33685151782325
</vert_displacement>
</event>
<event>
 4   1200 +8.6263000e+09 1.20417900e-02 7.81665300e-03            nan
       50 -1    0    0    0    0 +1.3582337192e-03 -9.7308938090e-04 +1.1006633635e+00 1.1006759592e+00 4.9935713700e-03 0.0000e+00 0.0000e+00
       11 -1    0    0    0    0 -5.5657423815e-20 +3.9875057817e-20 -4.5102758408e-17 5.1100000000e-04 5.1099893000e-04 0.0000e+00 1.0000e+00
       50  1    1    2    0    0 -4.3626486371e-03 -1.0299422012e-02 +9.6638033693e-01 9.6645796710e-01 4.9935713700e-03 0.0000e+00 0.0000e+00
       11  1    1    2    0    0 +5.7208823564e-03 +9.3263326316e-03 +1.3428302654e-01 1.3472899210e-01 5.1099893000e-04 0.0000e+00 1.0000e+00
<vert_displacement>
486.20437971979311
</vert_displacement>
</event>
<event>
 4   1200 +8.6263000e+09 1.93024000e-02 7.81665300e-03            nan
       50 -1    0    0    0    0 +5.6427506820e-02 -9.2992940653e-03 +1.7687358291e+01 1.7687451450e+01 4.9935713700e-03 0.0000e+00 0.0000e+00
       11 -1    0    0    0    0 +9.2974779275e-18 -1.5322311083e-18 +2.9143202061e-15 5.1100000000e-04 5.1099893000e-04 0.0000e+00 1.0000e+00
       50  1    1    2    0    0 +4.6298066548e-02 +7.2000193757e-03 +1.7340408035e+01 1.7340472056e+01 4.9935713700e-03 0.0000e+00 0.0000e+00
       11  1    1    2    0    0 +1.0129440272e-02 -1.6499313441e-02 +3.4695025612e-01 3.4749039447e-01 5.1099893000e-04 0.0000e+00 1.0000e+00
<vert_displacement>
12.671940142165576
</vert_displacement>
</event>
<event>
 4   1200 +8.6263000e+09 2.85231700e-02 7.81665300e-03            nan
       50 -1    0    0    0    0 -1.5943256509e-01 -7.5298247143e-02 +6.1472468513e+01 6.1472721581e+01 4.9935713700e-03 0.0000e+00 0.0000e+00
       11 -1    0    0    0    0 +1.2021573151e-17 +5.6776567929e-18 -4.6351620612e-15 5.1100000000e-04 5.1099893000e-04 0.0000e+00 1.0000e+00
       50  1    1    2    0    0 -1.3223762680e-01 -8.6799373708e-02 +6.0690914556e+01 6.0691120895e+01 4.9935713700e-03 0.0000e+00 0.0000e+00
       11  1    1    2    0    0 -2.7194938288e-02 +1.1501126565e-02 +7.8155395750e-01 7.8211168651e-01 5.1099893000e-04 0.0000e+00 1.0000e+00
<vert_displacement>
409.26258231171192
</vert_displacement>
</event>
<event>
 4   1200 +8.6263000e+09 2.27381700e-02 7.81665300e-03            nan
       50 -1    0    0    0    0 -3.4934382031e-02 -1.1252650455e-03 +2.2368401819e+01 2.2368429684e+01 4.9935713700e-03 0.0000e+00 0.0000e+00
       11 -1    0    0    0    0 +6.0687025770e-19 +1.9547787837e-20 -3.8857758423e-16 5.1100000000e-04 5.1099893000e-04 0.0000e+00 1.0000e+00
       50  1    1    2    0    0 -4.5427310024e-02 -2.0212228660e-02 +2.1876028259e+01 2.1876085333e+01 4.9935713700e-03 0.0000e+00 0.0000e+00
       11  1    1    2    0    0 +1.0492927994e-02 +1.9086963615e-02 +4.9237356011e-01 4.9285535153e-01 5.1099893000e-04 0.0000e+00 1.0000e+00
<vert_displacement>
350.26458943928782
</vert_displacement>
</event>
<event>
 4   1200 +8.6263000e+09 1.71718400e-02 7.81665300e-03            nan
       50 -1    0    0    0    0 +1.1058090944e-02 +6.2963956478e-02 +4.7281277878e+01 4.7281321359e+01 4.9935713700e-03 0.0000e+00 0.0000e+00
       11 -1    0    0    0    0 -1.9474308602e-19 -1.1088528078e-18 -8.3266650737e-16 5.1100000000e-04 5.1099893000e-04 0.0000e+00 1.0000e+00
       50  1    1    2    0    0 +2.5877400269e-02 +5.5647515833e-02 +4.7015662350e+01 4.7015702668e+01 4.9935713700e-03 0.0000e+00 0.0000e+00
       11  1    1    2    0    0 -1.4819309325e-02 +7.3164406445e-03 +2.6561552841e-01 2.6612969072e-01 5.1099893000e-04 0.0000e+00 1.0000e+00
<vert_displacement>
184.86522644376620
</vert_displacement>
</event>
<event>
 4   1200 +8.6263000e+09 5.69184600e-02 7.81665300e-03            nan
       50 -1    0    0    0    0 -1.2369255350e-02 +6.7796053522e-02 +2.9783986532e+01 2.9784066679e+01 4.9935713700e-03 0.0000e+00 0.0000e+00
       11 -1    0    0    0    0 -1.0489413274e-18 +5.7492614034e-18 +2.5257506198e-15 5.1100000000e-04 5.1099893000e-04 0.0000e+00 1.0000e+00
       50  1    1    2    0    0 +2.4684817478e-03 +4.5541543160e-03 +2.6209016209e+01 2.6209017197e+01 4.9935713700e-03 0.0000e+00 0.0000e+00
       11  1    1    2    0    0 -1.4837737098e-02 +6.3241899206e-02 +3.5749703222e+00 3.5755604822e+00 5.1099893000e-04 0.0000e+00 1.0000e+00
<vert_displacement>
243.50241934831664
</vert_displacement>
</event>
<event>
 4   1200 +8.6263000e+09 1.01979000e-02 7.81665300e-03            nan
       50 -1    0    0    0    0 -6.8477082485e-03 -3.6284410917e-02 +1.8057603871e+01 1.8057642314e+01 4.9935713700e-03 0.0000e+00 0.0000e+00
       11 -1    0    0    0    0 -6.2625531277e-19 -3.3183810238e-18 +1.6514532965e-15 5.1100000000e-04 5.1099893000e-04 0.0000e+00 1.0000e+00
       50  1    1    2    0    0 -2.0032607449e-03 -2.8653189383e-02 +1.7979924362e+01 1.7979947998e+01 4.9935713700e-03 0.0000e+00 0.0000e+00
       11  1    1    2    0    0 -4.8444475036e-03 -7.6312215348e-03 +7.7679508843e-02 7.8205315853e-02 5.1099893000e-04 0.0000e+00 1.0000e+00
<vert_displacement>
179.59735092626616
</vert_displacement>
</event>
<event>
 4   1200 +8.6263000e+09 4.28753400e-02 7.81665300e-03            nan
       50 -1    0    0    0    0 -1.2306667910e-02 -5.1735075597e-02 +2.5671002983e+01 2.5671058550e+01 4.9935713700e-03 0.0000e+00 0.0000e+00
       11 -1    0    0    0    0 -6.8525810357e-19 -2.8807050008e-18 +1.4294090772e-15 5.1100000000e-04 5.1099893000e-04 0.0000e+00 1.0000e+00
       50  1    1    2    0    0 -4.7038458487e-02 -7.1158593697e-02 +2.3753182727e+01 2.3753336413e+01 4.9935713700e-03 0.0000e+00 0.0000e+00
       11  1    1    2    0    0 +3.4731790577e-02 +1.9423518100e-02 +1.9178202559e+00 1.9182331364e+00 5.1099893000e-04 0.0000e+00 1.0000e+00
<vert_displacement>
297.55024380703594
</vert_displacement>
</event>
<event>
 4   1200 +8.6263000e+09 1.35368400e-02 7.81665300e-03            nan
       50 -1    0    0    0    0 +1.1384578395e-02 -3.5399740231e-02 +1.5043423839e+01 1.5043470626e+01 4.9935713700e-03 0.0000e+00 0.0000e+00
       11 -1    0    0    0    0 +6.5640093913e-19 -2.0410437634e-18 +8.6735908815e-16 5.1100000000e-04 5.1099893000e-04 0.0000e+00 1.0000e+00
       50  1    1    2    0    0 +7.7309744383e-03 -2.2956108567e-02 +1.4886916165e+01 1.4886936710e+01 4.9935713700e-03 0.0000e+00 0.0000e+00
       11  1    1    2    0    0 +3.6536039567e-03 -1.2443631663e-02 +1.5650767395e-01 1.5704491687e-01 5.1099893000e-04 0.0000e+00 1.0000e+00
<vert_displacement>
252.39592412790915
</vert_displacement>
</event>
<event>
 4   1200 +8.6263000e+09 7.12117400e-03 7.81665300e-03            nan
       50 -1    0    0    0    0 -6.8310009925e-03 +6.8382564266e-02 +3.5425633730e+01 3.5425700740e+01 4.9935713700e-03 0.0000e+00 0.0000e+00
       11 -1    0    0    0    0 -1.7394001477e-19 +1.7412476226e-18 +9.0205451016e-16 5.1100000000e-04 5.1099893000e-04 0.0000e+00 1.0000e+00
       50  1    1    2    0    0 -9.6002958594e-03 +7.2585823902e-02 +3.5400386160e+01 3.5400462229e+01 4.9935713700e-03 0.0000e+00 0.0000e+00
       11  1    1    2    0    0 +2.7692948669e-03 -4.2032596359e-03 +2.5247570099e-02 2.5749510703e-02 5.1099893000e-04 0.0000e+00 1.0000e+00
<vert_displacement>
29.164108376052056
</vert_displacement>
</event>
<event>
 4   1200 +8.6263000e+09 2.28540600e-02 7.81665300e-03            nan
       50 -1    0    0    0    0 +4.1605006990e-02 +3.6424290679e-02 +1.5716606322e+01 1.5716704391e+01 4.9935713700e-03 0.0000e+00 0.0000e+00
       11 -1    0    0    0    0 -3.9308652545e-18 -3.4413881647e-18 -1.4849141047e-15 5.1100000000e-04 5.1099893000e-04 0.0000e+00 1.0000e+00
       50  1    1    2    0    0 +2.3678294080e-02 +2.0361132663e-02 +1.5213896940e+01 1.5213929811e+01 4.9935713700e-03 0.0000e+00 0.0000e+00
       11  1    1    2    0    0 +1.7926712910e-02 +1.6063158016e-02 +5.0270938129e-01 5.0328558020e-01 5.1099893000e-04 0.0000e+00 1.0000e+00
<vert_displacement>
242.46626661161469
</vert_displacement>
</event>
<event>
 4   1200 +8.6263000e+09 3.19401100e-02 7.81665300e-03            nan
       50 -1    0    0    0    0 +2.0299549656e-02 -1.4537353462e-02 +6.2182874823e+00 6.2183396139e+00 4.9935713700e-03 0.0000e+00 0.0000e+00
       11 -1    0    0    0    0 -1.2458479520e-18 +8.9220363725e-19 -3.8163608828e-16 5.1100000000e-04 5.1099893000e-04 0.0000e+00 1.0000e+00
       50  1    1    2    0    0 +4.4336658919e-03 +1.7503132905e-02 +5.0079869016e+00 5.0080219408e+00 4.9935713700e-03 0.0000e+00 0.0000e+00
       11  1    1    2    0    0 +1.5865883765e-02 -3.2040486367e-02 +1.2103005806e+00 1.2108286731e+00 5.1099893000e-04 0.0000e+00 1.0000e+00
<vert_displacement>
65.635994183918470
</vert_displacement>
</event>
<event>
 4   1200 +8.6263000e+09 2.88372700e-02 7.81665300e-03            nan
       50 -1    0    0    0    0 -6.8259032042e-02 -1.0166523550e-02 +3.5941826158e+01 3.5941892760e+01 4.9935713700e-03 0.0000e+00 0.0000e+00
       11 -1    0    0    0    0 +2.7146675592e-18 +4.0432351361e-19 -1.4294095092e-15 5.1100000000e-04 5.1099893000e-04 0.0000e+00 1.0000e+00
       50  1    1    2    0    0 -9.5032636519e-02 -7.6231272387e-03 +3.5134323122e+01 3.5134452828e+01 4.9935713700e-03 0.0000e+00 0.0000e+00
       11  1    1    2    0    0 +2.6773604477e-02 -2.5433963109e-03 +8.0750303609e-01 8.0795093241e-01 5.1099893000e-04 0.0000e+00 1.0000e+00
<vert_displacement>
328.30027659737664
</vert_displacement>
</event>
<event>
 4   1200 +8.6263000e+09 3.10052100e-02 7.81665300e-03            nan
       50 -1    0    0    0    0 +3.0009705609e-02 +4.4785825685e-04 +1.1572634773e+01 1.1572674769e+01 4.9935713700e-03 0.0000e+00 0.0000e+00
       11 -1    0    0    0    0 +1.0436293111e-18 +1.5574894673e-20 +4.0245449298e-16 5.1100000000e-04 5.1099893000e-04 0.0000e+00 1.0000e+00
       50  1    1    2    0    0 +2.9475890946e-02 +3.0939492417e-02 +1.0569169334e+01 1.0569256900e+01 4.9935713700e-03 0.0000e+00 0.0000e+00
       11  1    1    2    0    0 +5.3381466316e-04 -3.0491634160e-02 +1.0034654393e+00 1.0039288689e+00 5.1099893000e-04 0.0000e+00 1.0000e+00
<vert_displacement>
174.48063757607116
</vert_displacement>
</event>
<event>
 4   1200 +8.6263000e+09 2.12010200e-02 7.81665300e-03            nan
       50 -1    0    0    0    0 +8.3337463681e-03 -2.7083110144e-02 +1.0669929508e+01 1.0669968303e+01 4.9935713700e-03 0.0000e+00 0.0000e+00
       11 -1    0    0    0    0 -7.2622675149e-19 +2.3601005156e-18 -9.2980850424e-16 5.1100000000e-04 5.1099893000e-04 0.0000e+00 1.0000e+00
       50  1    1    2    0    0 +2.3791262786e-02 -1.2753614153e-02 +1.0236909024e+01 1.0236945833e+01 4.9935713700e-03 0.0000e+00 0.0000e+00
       11  1    1    2    0    0 -1.5457516418e-02 -1.4329495990e-02 +4.3302048387e-01 4.3353347027e-01 5.1099893000e-04 0.0000e+00 1.0000e+00
<vert_displacement>
194.62363508570712
</vert_displacement>
</event>
<event>
 4   1200 +8.6263000e+09 1.20183900e-02 7.81665300e-03            nan
       50 -1    0    0    0    0 +3.1349053962e-02 +2.2806973481e-02 +1.2168953912e+01 1.2169016689e+01 4.9935713700e-03 0.0000e+00 0.0000e+00
       11 -1    0    0    0    0 -3.6287351732e-18 -2.6399669656e-18 -1.4085883145e-15 5.1100000000e-04 5.1099893000e-04 0.0000e+00 1.0000e+00
       50  1    1    2    0    0 +3.1823696711e-02 +1.1681580050e-02 +1.2050886530e+01 1.2050935246e+01 4.9935713700e-03 0.0000e+00 0.0000e+00
       11  1    1    2    0    0 -4.7464274882e-04 +1.1125393431e-02 +1.1806738242e-01 1.1859244317e-01 5.1099893000e-04 0.0000e+00 1.0000e+00
<vert_displacement>
414.35380439016149
</vert_displacement>
</event>
<event>
 4   1200 +8.6263000e+09 1.59928600e-02 7.81665300e-03            nan
       50 -1    0    0    0    0 +4.1576677881e-02 -5.3751938052e-02 +2.4216852152e+01 2.4216948011e+01 4.9935713700e-03 0.0000e+00 0.0000e+00
       11 -1    0    0    0    0 +4.4792827392e-18 -5.7909900595e-18 +2.6090138359e-15 5.1100000000e-04 5.1099893000e-04 0.0000e+00 1.0000e+00
       50  1    1    2    0    0 +3.1221317033e-02 -4.1776073586e-02 +2.3988874817e+01 2.3988932030e+01 4.9935713700e-03 0.0000e+00 0.0000e+00
       11  1    1    2    0    0 +1.0355360848e-02 -1.1975864466e-02 +2.2797733506e-01 2.2852698144e-01 5.1099893000e-04 0.0000e+00 1.0000e+00
<vert_displacement>
448.29571911617631
</vert_displacement>
</event>
<event>
 4   1200 +8.6263000e+09 2.21389700e-02 7.81665300e-03            nan
       50 -1    0    0    0    0 -1.4859518441e-02 -1.2375058549e-02 +5.3804025628e+00 5.3804396308e+00 4.9935713700e-03 0.0000e+00 0.0000e+00
       11 -1    0    0    0    0 -2.4912697740e-19 -2.0747381174e-19 +9.0205038138e-17 5.1100000000e-04 5.1099893000e-04 0.0000e+00 1.0000e+00
       50  1    1    2    0    0 +7.7178254595e-03 -1.5242058330e-02 +4.8781168603e+00 4.8781493339e+00 4.9935713700e-03 0.0000e+00 0.0000e+00
       11  1    1    2    0    0 -2.2577343901e-02 +2.8669997802e-03 +5.0228570250e-01 5.0280129694e-01 5.1099893000e-04 0.0000e+00 1.0000e+00
<vert_displacement>
389.95139330043116
</vert_displacement>
</event>
<event>
 4   1200 +8.6263000e+09 5.06650300e-03 7.81665300e-03            nan
       50 -1    0    0    0    0 -5.9668133609e-02 +4.0278215948e-02 +2.7102757298e+01 2.7102853368e+01 4.9935713700e-03 0.0000e+00 0.0000e+00
       11 -1    0    0    0    0 -6.5382490833e-18 +4.4135620234e-18 +2.9698361142e-15 5.1100000000e-04 5.1099893000e-04 0.0000e+00 1.0000e+00
       50  1    1    2    0    0 -6.0218519803e-02 +3.9622143604e-02 +2.7102039122e+01 2.7102135445e+01 4.9935713700e-03 0.0000e+00 0.0000e+00
       11  1    1    2    0    0 +5.5038619406e-04 +6.5607234383e-04 +7.1817626008e-04 1.2289234842e-03 5.1099893000e-04 0.0000e+00 1.0000e+00
<vert_displacement>
151.17606206673440
</vert_displacement>
</event>
<event>
 4   1200 +8.6263000e+09 1.86454800e-02 7.81665300e-03            nan
       50 -1    0    0    0    0 +9.5881268215e-02 +1.3429366143e-01 +5.3398433785e+01 5.3398688969e+01 4.9935713700e-03 0.0000e+00 0.0000e+00
       11 -1    0    0    0    0 -7.1017974236e-18 -9.9469520640e-18 -3.9551506414e-15 5.1100000000e-04 5.1099893000e-04 0.0000e+00 1.0000e+00
       50  1    1    2    0    0 +1.1279574584e-01 +1.3761736052e-01 +5.3080728652e+01 5.3081027124e+01 4.9935713700e-03 0.0000e+00 0.0000e+00
       11  1    1    2    0    0 -1.6914477630e-02 -3.3236990871e-03 +3.1770513293e-01 3.1817284476e-01 5.1099893000e-04 0.0000e+00 1.0000e+00
<vert_displacement>
263.99771254376412
</vert_displacement>
</event>
<event>
 4   1200 +8.6263000e+09 7.51383900e-03 7.81665300e-03            nan
       50 -1    0    0    0    0 -6.9984753812e-02 -7.1260670680e-05 +2.7290293955e+01 2.7290384148e+01 4.9935713700e-03 0.0000e+00 0.0000e+00
       11 -1    0    0    0    0 +1.4235542808e-18 +1.4495076037e-21 -5.5510968699e-16 5.1100000000e-04 5.1099893000e-04 0.0000e+00 1.0000e+00
       50  1    1    2    0    0 -7.3317519361e-02 +4.3875773637e-03 +2.7259406309e+01 2.7259505717e+01 4.9935713700e-03 0.0000e+00 0.0000e+00
       11  1    1    2    0    0 +3.3327655485e-03 -4.4588380344e-03 +3.0887646073e-02 3.1389430747e-02 5.1099893000e-04 0.0000e+00 1.0000e+00
<vert_displacement>
435.61411091592805
</vert_displacement>
</event>
<event>
 4   1200 +8.6263000e+09 5.22636600e-02 7.81665300e-03            nan
       50 -1    0    0    0    0 +7.1584412250e-02 +2.6808191736e-02 +2.0784845016e+01 2.0784986174e+01 4.9935713700e-03 0.0000e+00 0.0000e+00
       11 -1    0    0    0    0 +8.1730675674e-18 +3.0607943200e-18 +2.3730856670e-15 5.1100000000e-04 5.1099893000e-04 0.0000e+00 1.0000e+00
       50  1    1    2    0    0 +7.9861825461e-02 -2.5638150800e-02 +1.7668809009e+01 1.7669008799e+01 4.9935713700e-03 0.0000e+00 0.0000e+00
       11  1    1    2    0    0 -8.2774132116e-03 +5.2446342536e-02 +3.1160360070e+00 3.1164883752e+00 5.1099893000e-04 0.0000e+00 1.0000e+00
<vert_displacement>
339.82959722184671
</vert_displacement>
</event>
<event>
 4   1200 +8.6263000e+09 8.40652400e-03 7.81665300e-03            nan
       50 -1    0    0    0    0 +5.8044711806e-02 +5.0686577702e-02 +2.0142851238e+01 2.0142999262e+01 4.9935713700e-03 0.0000e+00 0.0000e+00
       11 -1    0    0    0    0 +3.7991145097e-18 +3.3175134616e-18 +1.3183801939e-15 5.1100000000e-04 5.1099893000e-04 0.0000e+00 1.0000e+00
       50  1    1    2    0    0 +6.0033434585e-02 +5.6996149754e-02 +2.0097978775e+01 2.0098149873e+01 4.9935713700e-03 0.0000e+00 0.0000e+00
       11  1    1    2    0    0 -1.9887227782e-03 -6.3095720516e-03 +4.4872463727e-02 4.5360388431e-02 5.1099893000e-04 0.0000e+00 1.0000e+00
<vert_displacement>
439.46897717699102
</vert_displacement>
</event>
<event>
 4   1200 +8.6263000e+09 1.96146900e-02 7.81665300e-03            nan
       50 -1    0    0    0    0 -3.6948410438e-02 -4.1582119022e-02 +3.3313065547e+01 3.3313112363e+01 4.9935713700e-03 0.0000e+00 0.0000e+00
       11 -1    0    0    0    0 +3.2631471480e-18 +3.6723791764e-18 -2.9420869137e-15 5.1100000000e-04 5.1099893000e-04 0.0000e+00 1.0000e+00
       50  1    1    2    0    0 -5.5522019010e-02 -4.1194374687e-02 +3.2957180183e+01 3.2957253074e+01 4.9935713700e-03 0.0000e+00 0.0000e+00
       11  1    1    2    0    0 +1.8573608572e-02 -3.8774433501e-04 +3.5588536408e-01 3.5637028884e-01 5.1099893000e-04 0.0000e+00 1.0000e+00
<vert_displacement>
46.239101528992350
</vert_displacement>
</event>
<event>
 4   1200 +8.6263000e+09 7.19196900e-03 7.81665300e-03            nan
       50 -1    0    0    0    0 +2.1891136076e-03 -2.3779627266e-03 +7.5769614539e+00 7.5769637888e+00 4.9935713700e-03 0.0000e+00 0.0000e+00
       11 -1    0    0    0    0 -1.4434306627e-19 +1.5679516597e-19 -4.9960031563e-16 5.1100000000e-04 5.1099893000e-04 0.0000e+00 1.0000e+00
       50  1    1    2    0    0 -2.9320620889e-03 -1.5697000254e-03 +7.5506577897e+00 7.5506601734e+00 4.9935713700e-03 0.0000e+00 0.0000e+00
       11  1    1    2    0    0 +5.1211756964e-03 -8.0826270117e-04 +2.6303664187e-02 2.6814615393e-02 5.1099893000e-04 0.0000e+00 1.0000e+00
<vert_displacement>
296.33533670585695
</vert_displacement>
</event>
<event>
 4   1200 +8.6263000e+09 2.58085300e-02 7.81665300e-03            nan
       50 -1    0    0    0    0 -6.3206314351e-03 +1.5560224781e-02 +8.3214038256e+00 8.3214222724e+00 4.9935713700e-03 0.0000e+00 0.0000e+00
       11 -1    0    0    0    0 -8.5909429607e-19 +2.1149311572e-18 +1.1310374027e-15 5.1100000000e-04 5.1099893000e-04 0.0000e+00 1.0000e+00
       50  1    1    2    0    0 -1.1074156205e-02 +3.9047412117e-02 +7.6376331034e+00 7.6377425785e+00 4.9935713700e-03 0.0000e+00 0.0000e+00
       11  1    1    2    0    0 +4.7535247703e-03 -2.3487187335e-02 +6.8377072225e-01 6.8419069396e-01 5.1099893000e-04 0.0000e+00 1.0000e+00
<vert_displacement>
272.33352099806035
</vert_displacement>
</event>
<event>
 4   1200 +8.6263000e+09 1.28533200e-02 7.81665300e-03            nan
       50 -1    0    0    0    0 +1.4136405818e-02 -2.2619214407e-02 +1.1961970297e+01 1.1962001078e+01 4.9935713700e-03 0.0000e+00 0.0000e+00
       11 -1    0    0    0    0 -5.7401533105e-19 +9.1846371796e-19 -4.8572136572e-16 5.1100000000e-04 5.1099893000e-04 0.0000e+00 1.0000e+00
       50  1    1    2    0    0 +1.0030232838e-02 -1.1188282107e-02 +1.1823122466e+01 1.1823133069e+01 4.9935713700e-03 0.0000e+00 0.0000e+00
       11  1    1    2    0    0 +4.1061729796e-03 -1.1430932300e-02 +1.3884783129e-01 1.3937900933e-01 5.1099893000e-04 0.0000e+00 1.0000e+00
<vert_displacement>
271.01655626478851
</vert_displacement>
</event>
<event>
 4   1200 +8.6263000e+09 1.78286300e-02 7.81665300e-03            nan
       50 -1    0    0    0    0 +3.1910056683e-02 -1.4030138915e-02 +1.0913344487e+01 1.0913401300e+01 4.9935713700e-03 0.0000e+00 0.0000e+00
       11 -1    0    0    0    0 -1.5419537073e-18 +6.7796259120e-19 -5.2735324661e-16 5.1100000000e-04 5.1099893000e-04 0.0000e+00 1.0000e+00
       50  1    1    2    0    0 +4.4941037035e-02 -3.6551425885e-03 +1.0618716009e+01 1.0618812913e+01 4.9935713700e-03 0.0000e+00 0.0000e+00
       11  1    1    2    0    0 -1.3030980353e-02 -1.0374996326e-02 +2.9462847756e-01 2.9509938649e-01 5.1099893000e-04 0.0000e+00 1.0000e+00
<vert_displacement>
324.80822787797979
</vert_displacement>
</event>
<event>
 4   1200 +8.6263000e+09 2.87102400e-02 7.81665300e-03            nan
       50 -1    0    0    0    0 -4.2757656021e-02 -1.1280138842e-02 +1.6837146779e+01 1.6837205589e+01 4.9935713700e-03 0.0000e+00 0.0000e+00
       11 -1    0    0    0    0 +3.2422907967e-18 +8.5536705605e-19 -1.2767520749e-15 5.1100000000e-04 5.1099893000e-04 0.0000e+00 1.0000e+00
       50  1    1    2    0    0 -3.5531821724e-02 +1.7072766392e-02 +1.6014796738e+01 1.6014846034e+01 4.9935713700e-03 0.0000e+00 0.0000e+00
       11  1    1    2    0    0 -7.2258342971e-03 -2.8352905234e-02 +8.2235004079e-01 8.2287055521e-01 5.1099893000e-04 0.0000e+00 1.0000e+00
<vert_displacement>
411.13712129218140
</vert_displacement>
</event>
<event>
 4   1200 +8.6263000e+09 1.14456500e-02 7.81665300e-03            nan
       50 -1    0    0    0    0 +7.8966829014e-02 -7.4561936267e-02 +2.8887145257e+01 2.8887349849e+01 4.9935713700e-03 0.0000e+00 0.0000e+00
       11 -1    0    0    0    0 -5.3111098339e-18 +5.0148478531e-18 -1.9428765618e-15 5.1100000000e-04 5.1099893000e-04 0.0000e+00 1.0000e+00
       50  1    1    2    0    0 +8.4353435224e-02 -8.2889681458e-02 +2.8782946729e+01 2.8783190121e+01 4.9935713700e-03 0.0000e+00 0.0000e+00
       11  1    1    2    0    0 -5.3866062103e-03 +8.3277451905e-03 +1.0419852858e-01 1.0467072821e-01 5.1099893000e-04 0.0000e+00 1.0000e+00
<vert_displacement>
57.767441845731987
</vert_displacement>
</event>
<event>
 4   1200 +8.6263000e+09 2.91786000e-02 7.81665300e-03            nan
       50 -1    0    0    0    0 -3.5569880510e-02 -1.6013836994e-03 +1.1035414696e+01 1.1035473267e+01 4.9935713700e-03 0.0000e+00 0.0000e+00
       11 -1    0    0    0    0 -9.3935775527e-19 -4.2290617108e-20 +2.9143202701e-16 5.1100000000e-04 5.1099893000e-04 0.0000e+00 1.0000e+00
       50  1    1    2    0    0 -6.1258029724e-02 +2.1326165417e-03 +1.0156483392e+01 1.0156669578e+01 4.9935713700e-03 0.0000e+00 0.0000e+00
       11  1    1    2    0    0 +2.5688149214e-02 -3.7340002411e-03 +8.7893130434e-01 8.7931468920e-01 5.1099893000e-04 0.0000e+00 1.0000e+00
<vert_displacement>
263.62934841014749
</vert_displacement>
</event>
<event>
 4   1200 +8.6263000e+09 5.31334800e-03 7.81665300e-03            nan
       50 -1    0    0    0    0 -6.3671295488e-03 +1.1589679750e-02 +6.3059544082e+00 6.3059702501e+00 4.9935713700e-03 0.0000e+00 0.0000e+00
       11 -1    0    0    0    0 +6.3756364438e-19 -1.1605164308e-18 -6.3143795693e-16 5.1100000000e-04 5.1099893000e-04 0.0000e+00 1.0000e+00
       50  1    1    2    0    0 -6.5658610669e-03 +9.7795589063e-03 +6.3027306459e+00 6.3027436312e+00 4.9935713700e-03 0.0000e+00 0.0000e+00
       11  1    1    2    0    0 +1.9873151803e-04 +1.8101208438e-03 +3.2237623766e-03 3.7376189550e-03 5.1099893000e-04 0.0000e+00 1.0000e+00
<vert_displacement>
80.852917281748489
</vert_displacement>
</event>
<event>
 4   1200 +8.6263000e+09 3.48045100e-02 7.81665300e-03            nan
       50 -1    0    0    0    0 -1.7583134187e-02 +5.9017005919e-03 +9.3883085722e+00 9.3883282207e+00 4.9935713700e-03 0.0000e+00 0.0000e+00
       11 -1    0    0    0    0 -3.5088281527e-19 +1.1777225246e-19 +1.8734976981e-16 5.1100000000e-04 5.1099893000e-04 0.0000e+00 1.0000e+00
       50  1    1    2    0    0 -1.5102921986e-02 +3.9492499039e-02 +8.0304598726e+00 8.0305727353e+00 4.9935713700e-03 0.0000e+00 0.0000e+00
       11  1    1    2    0    0 -2.4802122013e-03 -3.3590798447e-02 +1.3578486997e+00 1.3582664855e+00 5.1099893000e-04 0.0000e+00 1.0000e+00
<vert_displacement>
289.61425910838904
</vert_displacement>
</event>
<event>
 4   1200 +8.6263000e+09 1.91231300e-02 7.81665300e-03            nan
       50 -1    0    0    0    0 -2.8799041795e-03 -1.7442772021e-02 +1.1652899925e+01 1.1652914405e+01 4.9935713700e-03 0.0000e+00 0.0000e+00
       11 -1    0    0    0    0 -2.3493857804e-19 -1.4229570848e-18 +9.5062737082e-16 5.1100000000e-04 5.1099893000e-04 0.0000e+00 1.0000e+00
       50  1    1    2    0    0 +3.0680585749e-04 +1.2686821068e-03 +1.1309339005e+01 1.1309340182e+01 4.9935713700e-03 0.0000e+00 0.0000e+00
       11  1    1    2    0    0 -3.1867100370e-03 -1.8711454127e-02 +3.4356091987e-01 3.4408522261e-01 5.1099893000e-04 0.0000e+00 1.0000e+00
<vert_displacement>
388.53231082551616
</vert_displacement>
</event>
<event>
 4   1200 +8.6263000e+09 9.49032200e-03 7.81665300e-03            nan
       50 -1    0    0    0    0 -3.0097333607e-02 +1.6935591513e-02 +1.3394898664e+01 1.3394944114e+01 4.9935713700e-03 0.0000e+00 0.0000e+00
       11 -1    0    0    0    0 +6.5482715953e-19 -3.6846736759e-19 -2.9143257536e-16 5.1100000000e-04 5.1099893000e-04 0.0000e+00 1.0000e+00
       50  1    1    2    0    0 -2.5349582398e-02 +2.3482966932e-02 +1.3330863277e+01 1.3330908997e+01 4.9935713700e-03 0.0000e+00 0.0000e+00
       11  1    1    2    0    0 -4.7477512087e-03 -6.5473754184e-03 +6.4035387498e-02 6.4546117144e-02 5.1099893000e-04 0.0000e+00 1.0000e+00
<vert_displacement>
245.54469833984473
</vert_displacement>
</event>
<event>
 4   1200 +8.6263000e+09 9.02511400e-03 7.81665300e-03            nan
       50 -1    0    0    0    0 -1.2860972160e-02 -1.7512565168e-03 +5.1040001750e+00 5.1040191216e+00 4.9935713700e-03 0.0000e+00 0.0000e+00
       11 -1    0    0    0    0 -8.7422246966e-20 -1.1904137401e-20 +3.4694357335e-17 5.1100000000e-04 5.1099893000e-04 0.0000e+00 1.0000e+00
       50  1    1    2    0    0 -1.9304776592e-02 +1.8953581514e-03 +5.0480635376e+00 5.0481032757e+00 4.9935713700e-03 0.0000e+00 0.0000e+00
       11  1    1    2    0    0 +6.4438044313e-03 -3.6466146682e-03 +5.5936637342e-02 5.6426845837e-02 5.1099893000e-04 0.0000e+00 1.0000e+00
<vert_displacement>
31.946922576021517
</vert_displacement>
</event>
<event>
 4   1200 +8.6263000e+09 3.44289900e-02 7.81665300e-03            nan
       50 -1    0    0    0    0 -3.0703313617e-03 -2.7028112023e-02 +1.1267875143e+01 1.1267909084e+01 4.9935713700e-03 0.0000e+00 0.0000e+00
       11 -1    0    0    0    0 -2.2688900489e-20 -1.9973028049e-19 +8.3266484211e-17 5.1100000000e-04 5.1099893000e-04 0.0000e+00 1.0000e+00
       50  1    1    2    0    0 +8.8213657761e-03 -5.6003778142e-02 +9.9862419178e+00 9.9864040984e+00 4.9935713700e-03 0.0000e+00 0.0000e+00
       11  1    1    2    0    0 -1.1891697138e-02 +2.8975666119e-02 +1.2816332257e+00 1.2820159859e+00 5.1099893000e-04 0.0000e+00 1.0000e+00
<vert_displacement>
189.48403081469900
</vert_displacement>
</event>
<event>
 4   1200 +8.6263000e+09 1.06721600e-02 7.81665300e-03            nan
       50 -1    0    0    0    0 +3.1239628802e-02 -3.1518338645e-02 +1.7478820656e+01 1.7478877704e+01 4.9935713700e-03 0.0000e+00 0.0000e+00
       11 -1    0    0    0    0 -3.3732729987e-18 +3.4033682470e-18 -1.8873730588e-15 5.1100000000e-04 5.1099893000e-04 0.0000e+00 1.0000e+00
       50  1    1    2    0    0 +2.1671238892e-02 -3.1971131318e-02 +1.7391351291e+01 1.7391394897e+01 4.9935713700e-03 0.0000e+00 0.0000e+00
       11  1    1    2    0    0 +9.5683899096e-03 +4.5279267272e-04 +8.7469365296e-02 8.7993807123e-02 5.1099893000e-04 0.0000e+00 1.0000e+00
<vert_displacement>
72.663735100069417
</vert_displacement>
</event>
<event>
 4   1200 +8.6263000e+09 8.54525000e-03 7.81665300e-03            nan
       50 -1    0    0    0    0 +1.3523029199e-03 +1.1705376803e-03 +4.6248735042e+00 4.6248765459e+00 4.9935713700e-03 0.0000e+00 0.0000e+00
       11 -1    0    0    0    0 -1.8260255549e-20 -1.5805864838e-20 -6.2450040465e-17 5.1100000000e-04 5.1099893000e-04 0.0000e+00 1.0000e+00
       50  1    1    2    0    0 -5.4945166730e-03 -2.3353881004e-05 +4.5773287737e+00 4.5773347953e+00 4.9935713700e-03 0.0000e+00 0.0000e+00
       11  1    1    2    0    0 +6.8468195929e-03 +1.1938915613e-03 +4.7544730566e-02 4.8052750599e-02 5.1099893000e-04 0.0000e+00 1.0000e+00
<vert_displacement>
68.765727357274841
</vert_displacement>
</event>
<event>
 4   1200 +8.6263000e+09 2.06380800e-02 7.81665300e-03            nan
       50 -1    0    0    0    0 -6.9194285809e-02 -1.6158478020e-02 +2.1699376882e+01 2.1699493794e+01 4.9935713700e-03 0.0000e+00 0.0000e+00
       11 -1    0    0    0    0 +1.0620675124e-18 +2.4801751119e-19 -3.3306512171e-16 5.1100000000e-04 5.1099893000e-04 0.0000e+00 1.0000e+00
       50  1    1    2    0    0 -4.9726567108e-02 -7.4939794274e-03 +2.1299699309e+01 2.1299759259e+01 4.9935713700e-03 0.0000e+00 0.0000e+00
       11  1    1    2    0    0 -1.9467718701e-02 -8.6644985930e-03 +3.9967757212e-01 4.0024553512e-01 5.1099893000e-04 0.0000e+00 1.0000e+00
<vert_displacement>
110.91119654564304
</vert_displacement>
</event>
<event>
 4   1200 +8.6263000e+09 2.28883000e-02 7.81665300e-03            nan
       50 -1    0    0    0    0 -1.5046342727e-02 +8.8024049328e-03 +4.5750994434e+01 4.5750998027e+01 4.9935713700e-03 0.0000e+00 0.0000e+00
       11 -1    0    0    0    0 -7.4850459553e-19 +4.3788983567e-19 +2.2759570353e-15 5.1100000000e-04 5.1099893000e-04 0.0000e+00 1.0000e+00
       50  1    1    2    0    0 -1.8888770260e-03 -9.4602217171e-03 +4.5257472006e+01 4.5257473310e+01 4.9935713700e-03 0.0000e+00 0.0000e+00
       11  1    1    2    0    0 -1.3157465701e-02 +1.8262626650e-02 +4.9352242724e-01 4.9403571707e-01 5.1099893000e-04 0.0000e+00 1.0000e+00
<vert_displacement>
353.64341322626620
</vert_displacement>
</event>
<event>
 4   1200 +8.6263000e+09 2.31949100e-02 7.81665300e-03            nan
       50 -1    0    0    0    0 -7.1994893686e-02 -6.7187170798e-03 +2.3364435396e+01 2.3364547817e+01 4.9935713700e-03 0.0000e+00 0.0000e+00
       11 -1    0    0    0    0 -5.6874318803e-18 -5.3076327720e-19 +1.8457369396e-15 5.1100000000e-04 5.1099893000e-04 0.0000e+00 1.0000e+00
       50  1    1    2    0    0 -5.3937824301e-02 +8.9733078913e-03 +2.2851168923e+01 2.2851234888e+01 4.9935713700e-03 0.0000e+00 0.0000e+00
       11  1    1    2    0    0 -1.8057069384e-02 -1.5692024971e-02 +5.1326647249e-01 5.1382392929e-01 5.1099893000e-04 0.0000e+00 1.0000e+00
<vert_displacement>
182.71834731423567
</vert_displacement>
</event>
<event>
 4   1200 +8.6263000e+09 1.59072300e-02 7.81665300e-03            nan
       50 -1    0    0    0    0 -2.5654417671e-02 -1.7617810089e-02 +1.2503140132e+01 1.2503179861e+01 4.9935713700e-03 0.0000e+00 0.0000e+00
       11 -1    0    0    0    0 +1.7227304675e-18 +1.1830608903e-18 -8.3960356149e-16 5.1100000000e-04 5.1099893000e-04 0.0000e+00 1.0000e+00
       50  1    1    2    0    0 -3.7314736965e-02 -8.2949620608e-03 +1.2275783649e+01 1.2275844180e+01 4.9935713700e-03 0.0000e+00 0.0000e+00
       11  1    1    2    0    0 +1.1660319294e-02 -9.3228480282e-03 +2.2735648307e-01 2.2784668102e-01 5.1099893000e-04 0.0000e+00 1.0000e+00
<vert_displacement>
200.05867763510008
</vert_displacement>
</event>
<event>
 4   1200 +8.6263000e+09 1.31941900e-02 7.81665300e-03            nan
       50 -1    0    0    0    0 +2.6903179282e-02 -1.7946436067e-02 +9.8733999347e+00 9.8734541606e+00 4.9935713700e-03 0.0000e+00 0.0000e+00
       11 -1    0    0    0    0 +1.3045895187e-18 -8.7025894391e-19 +4.7878111108e-16 5.1100000000e-04 5.1099893000e-04 0.0000e+00 1.0000e+00
       50  1    1    2    0    0 +3.5363970045e-02 -2.6077652866e-02 +9.7251842712e+00 9.7252848132e+00 4.9935713700e-03 0.0000e+00 0.0000e+00
       11  1    1    2    0    0 -8.4607907624e-03 +8.1312167990e-03 +1.4821566349e-01 1.4868034736e-01 5.1099893000e-04 0.0000e+00 1.0000e+00
<vert_displacement>
326.47826563345672
</vert_displacement>
</event>
<event>
 4   1200 +8.6263000e+09 8.68014600e-03 7.81665300e-03            nan
       50 -1    0    0    0    0 +4.3513145499e-02 -6.5379115360e-02 +3.2505152123e+01 3.2505247381e+01 4.9935713700e-03 0.0000e+00 0.0000e+00
       11 -1    0    0    0    0 -1.8763274192e-18 +2.8192084343e-18 -1.4016524775e-15 5.1100000000e-04 5.1099893000e-04 0.0000e+00 1.0000e+00
       50  1    1    2    0    0 +4.4966851960e-02 -7.2215101166e-02 +3.2455736326e+01 3.2455848201e+01 4.9935713700e-03 0.0000e+00 0.0000e+00
       11  1    1    2    0    0 -1.4537064615e-03 +6.8359858067e-03 +4.9415796332e-02 4.9910179437e-02 5.1099893000e-04 0.0000e+00 1.0000e+00
<vert_displacement>
73.933981086314205
</vert_displacement>
</event>
<event>
 4   1200 +8.6263000e+09 7.16892600e-03 7.81665300e-03            nan
       50 -1    0    0    0    0 +5.8664245400e-03 +6.8684831993e-04 +2.2570877666e+00 2.2571010187e+00 4.9935713700e-03 0.0000e+00 0.0000e+00
       11 -1    0    0    0    0 -4.5087256578e-20 -5.2788723728e-21 -1.7347175363e-17 5.1100000000e-04 5.1099893000e-04 0.0000e+00 1.0000e+00
       50  1    1    2    0    0 +3.2747602429e-03 -3.8032347388e-03 +2.2308942376e+00 2.2309054717e+00 4.9935713700e-03 0.0000e+00 0.0000e+00
       11  1    1    2    0    0 +2.5916642971e-03 +4.4900830587e-03 +2.6193528958e-02 2.6706546929e-02 5.1099893000e-04 0.0000e+00 1.0000e+00
<vert_displacement>
63.307874602524791
</vert_displacement>
</event>
<event>
 4   1200 +8.6263000e+09 1.41819000e-02 7.81665300e-03            nan
       50 -1    0    0    0    0 -3.8990587215e-02 +1.2929431586e-02 +1.1654157279e+01 1.1654230745e+01 4.9935713700e-03 0.0000e+00 0.0000e+00
       11 -1    0    0    0    0 +3.4822320585e-19 -1.1547218030e-19 -1.0408276199e-16 5.1100000000e-04 5.1099893000e-04 0.0000e+00 1.0000e+00
       50  1    1    2    0    0 -3.0827679297e-02 +2.3633636519e-02 +1.1479131766e+01 1.1479198575e+01 4.9935713700e-03 0.0000e+00 0.0000e+00
       11  1    1    2    0    0 -8.1629079178e-03 -1.0704204933e-02 +1.7502551290e-01 1.7554316949e-01 5.1099893000e-04 0.0000e+00 1.0000e+00
<vert_displacement>
186.05987079001724
</vert_displacement>
</event>
<event>
 4   1200 +8.6263000e+09 8.41974900e-03 7.81665300e-03            nan
       50 -1    0    0    0    0 -3.4654282337e-02 -1.4597091584e-03 +1.8706763016e+01 1.8706795838e+01 4.9935713700e-03 0.0000e+00 0.0000e+00
       11 -1    0    0    0    0 +1.2854280289e-19 +5.4144854251e-21 -6.9388819765e-17 5.1100000000e-04 5.1099893000e-04 0.0000e+00 1.0000e+00
       50  1    1    2    0    0 -2.7948142465e-02 -8.1003353182e-06 +1.8661698351e+01 1.8661719947e+01 4.9935713700e-03 0.0000e+00 0.0000e+00
       11  1    1    2    0    0 -6.7061398716e-03 -1.4516088231e-03 +4.5064665504e-02 4.5586891504e-02 5.1099893000e-04 0.0000e+00 1.0000e+00
<vert_displacement>
400.00859115806463
</vert_displacement>
</event>
<event>
 4   1200 +8.6263000e+09 5.76009500e-02 7.81665300e-03            nan
       50 -1    0    0    0    0 +3.6556281550e-02 +1.0363167622e-02 +1.8782187992e+01 1.8782227090e+01 4.9935713700e-03 0.0000e+00 0.0000e+00
       11 -1    0    0    0    0 +2.5930232902e-18 +7.3508392717e-19 +1.3322649033e-15 5.1100000000e-04 5.1099893000e-04 0.0000e+00 1.0000e+00
       50  1    1    2    0    0 +7.3470648205e-02 +4.3744278183e-02 +1.4649508658e+01 1.4649759055e+01 4.9935713700e-03 0.0000e+00 0.0000e+00
       11  1    1    2    0    0 -3.6914366655e-02 -3.3381110561e-02 +4.1326793342e+00 4.1329790357e+00 5.1099893000e-04 0.0000e+00 1.0000e+00
<vert_displacement>
106.26934608013462
</vert_displacement>
</event>
<event>
 4   1200 +8.6263000e+09 1.20574700e-02 7.81665300e-03            nan
       50 -1    0    0    0    0 +2.6065192504e-02 +2.8152690842e-02 +1.5294966376e+01 1.5295015310e+01 4.9935713700e-03 0.0000e+00 0.0000e+00
       11 -1    0    0    0    0 +3.7130512105e-18 +4.0104205175e-18 +2.1788058311e-15 5.1100000000e-04 5.1099893000e-04 0.0000e+00 1.0000e+00
       50  1    1    2    0    0 +3.4605671557e-02 +3.4567882163e-02 +1.5176157829e+01 1.5176237474e+01 4.9935713700e-03 0.0000e+00 0.0000e+00
       11  1    1    2    0    0 -8.5404790527e-03 -6.4151913210e-03 +1.1880854730e-01 1.1928883641e-01 5.1099893000e-04 0.0000e+00 1.0000e+00
<vert_displacement>
401.34031675520561
</vert_displacement>
</event>
<event>
 4   1200 +8.6263000e+09 9.29036100e-03 7.81665300e-03            nan
       50 -1    0    0    0    0 +1.5568864996e-02 +8.7725828358e-03 +7.6448006698e+00 7.6448231872e+00 4.9935713700e-03 0.0000e+00 0.0000e+00
       11 -1    0    0    0    0 +2.2609961865e-19 +1.2740027191e-19 +1.1102199914e-16 5.1100000000e-04 5.1099893000e-04 0.0000e+00 1.0000e+00
       50  1    1    2    0    0 +1.1992643582e-02 +1.6708962720e-03 +7.5842771301e+00 7.5842884398e+00 4.9935713700e-03 0.0000e+00 0.0000e+00
       11  1    1    2    0    0 +3.5762214138e-03 +7.1016865638e-03 +6.0523539650e-02 6.1045747463e-02 5.1099893000e-04 0.0000e+00 1.0000e+00
<vert_displacement>
91.770661266181875
</vert_displacement>
</event>
<event>
 4   1200 +8.6263000e+09 1.39551100e-02 7.81665300e-03            nan
       50 -1    0    0    0    0 -2.9852932760e-02 +1.2294708178e-02 +1.5798516729e+01 1.5798550508e+01 4.9935713700e-03 0.0000e+00 0.0000e+00
       11 -1    0    0    0    0 -3.8286254343e-18 +1.5767908908e-18 +2.0261527891e-15 5.1100000000e-04 5.1099893000e-04 0.0000e+00 1.0000e+00
       50  1    1    2    0    0 -4.2492667681e-02 +1.0777372169e-02 +1.5630546126e+01 1.5630608399e+01 4.9935713700e-03 0.0000e+00 0.0000e+00
       11  1    1    2    0    0 +1.2639734921e-02 +1.5173360095e-03 +1.6797060351e-01 1.6845310911e-01 5.1099893000e-04 0.0000e+00 1.0000e+00
<vert_displacement>
128.20349581861433
</vert_displacement>
</event>
<event>
 4   1200 +8.6263000e+09 1.41514000e-02 7.81665300e-03            nan
       50 -1    0    0    0    0 +1.3435000895e-01 -6.2046417594e-02 +5.3005253287e+01 5.3005460102e+01 4.9935713700e-03 0.0000e+00 0.0000e+00
       11 -1    0    0    0    0 -8.2661864719e-18 +3.8175453933e-18 -3.2612674245e-15 5.1100000000e-04 5.1099893000e-04 0.0000e+00 -1.0000e+00
       50  1    1    2    0    0 +1.2193046672e-01 -6.7477563649e-02 +5.2833164781e+01 5.2833348805e+01 4.9935713700e-03 0.0000e+00 0.0000e+00
       11  1    1    2    0    0 +1.2419542231e-02 +5.4311460559e-03 +1.7208850675e-01 1.7262229767e-01 5.1099893000e-04 0.0000e+00 -1.0000e+00
<vert_displacement>
403.90276370903848
</vert_displacement>
</event>
<event>
 4   1200 +8.6263000e+09 1.07704000e-02 7.81665300e-03            nan
       50 -1    0    0    0    0 +4.0300678805e-02 -2.4647794236e-02 +1.1810963248e+01 1.1811058777e+01 4.9935713700e-03 0.0000e+00 0.0000e+00
       11 -1    0    0    0    0 +4.9483464975e-18 -3.0263963262e-18 +1.4502172259e-15 5.1100000000e-04 5.1099893000e-04 0.0000e+00 1.0000e+00
       50  1    1    2    0    0 +4.2030905993e-02 -3.3783355686e-02 +1.1721144162e+01 1.1721269271e+01 4.9935713700e-03 0.0000e+00 0.0000e+00
       11  1    1    2    0    0 -1.7302271884e-03 +9.1355614500e-03 +8.9819085422e-02 9.0300506062e-02 5.1099893000e-04 0.0000e+00 1.0000e+00
<vert_displacement>
439.95830660736300
</vert_displacement>
</event>
<event>
 4   1200 +8.6263000e+09 1.27626100e-02 7.81665300e-03            nan
       50 -1    0    0    0    0 +6.3227216312e-02 +3.1512169179e-02 +1.8438728653e+01 1.8438864660e+01 4.9935713700e-03 0.0000e+00 0.0000e+00
       11 -1    0    0    0    0 -7.1380798654e-19 -3.5575879100e-19 -2.0816528928e-16 5.1100000000e-04 5.1099893000e-04 0.0000e+00 1.0000e+00
       50  1    1    2    0    0 +5.1216632215e-02 +2.9117331776e-02 +1.8302786051e+01 1.8302881552e+01 4.9935713700e-03 0.0000e+00 0.0000e+00
       11  1    1    2    0    0 +1.2010584097e-02 +2.3948374027e-03 +1.3594260237e-01 1.3649410843e-01 5.1099893000e-04 0.0000e+00 1.0000e+00
<vert_displacement>
74.411498768420884
</vert_displacement>
</event>
<event>
 4   1200 +8.6263000e+09 5.35017600e-02 7.81665300e-03            nan
       50 -1    0    0    0    0 +1.0297809987e-01 -6.9519183696e-02 +3.0319377766e+01 3.0319632756e+01 4.9935713700e-03 0.0000e+00 0.0000e+00
       11 -1    0    0    0    0 +1.1312339431e-18 -7.6368140796e-19 +3.3306411079e-16 5.1100000000e-04 5.1099893000e-04 0.0000e+00 1.0000e+00
       50  1    1    2    0    0 +1.2234112477e-01 -1.0653785453e-01 +2.7227148461e+01 2.7227632213e+01 4.9935713700e-03 0.0000e+00 0.0000e+00
       11  1    1    2    0    0 -1.9363024901e-02 +3.7018670835e-02 +3.0922293043e+00 3.0925115424e+00 5.1099893000e-04 0.0000e+00 1.0000e+00
<vert_displacement>
58.314746009830962
</vert_displacement>
</event>
<event>
 4   1200 +8.6263000e+09 9.89650900e-03 7.81665300e-03            nan
       50 -1    0    0    0    0 -1.5762516664e-02 -1.1311031987e-02 +9.3914913247e+00 9.3915126915e+00 4.9935713700e-03 0.0000e+00 0.0000e+00
       11 -1    0    0    0    0 +6.2888911420e-19 +4.5128484482e-19 -3.7469947129e-16 5.1100000000e-04 5.1099893000e-04 0.0000e+00 1.0000e+00
       50  1    1    2    0    0 -7.5393595789e-03 -1.3936758909e-02 +9.3195110558e+00 9.3195258640e+00 4.9935713700e-03 0.0000e+00 0.0000e+00
       11  1    1    2    0    0 -8.2231570852e-03 +2.6257269226e-03 +7.1980268939e-02 7.2497827490e-02 5.1099893000e-04 0.0000e+00 1.0000e+00
<vert_displacement>
42.796349200312775
</vert_displacement>
</event>
<event>
 4   1200 +8.6263000e+09 5.17853100e-02 7.81665300e-03            nan
       50 -1    0    0    0    0 +6.5273694092e-02 +3.3813673638e-02 +2.6528584660e+01 2.6528686982e+01 4.9935713700e-03 0.0000e+00 0.0000e+00
       11 -1    0    0    0    0 -1.0926791728e-18 -5.6603961908e-19 -4.4408750484e-16 5.1100000000e-04 5.1099893000e-04 0.0000e+00 1.0000e+00
       50  1    1    2    0    0 +9.0248872584e-02 +7.0366672433e-02 +2.3606749945e+01 2.3607027857e+01 4.9935713700e-03 0.0000e+00 0.0000e+00
       11  1    1    2    0    0 -2.4975178493e-02 -3.6552998795e-02 +2.9218347148e+00 2.9221701256e+00 5.1099893000e-04 0.0000e+00 1.0000e+00
<vert_displacement>
193.79523295211845
</vert_displacement>
</event>
<event>
 4   1200 +8.6263000e+09 1.42214000e-02 7.81665300e-03            nan
       50 -1    0    0    0    0 -3.5770874194e-02 -6.7171563193e-02 +3.0032020996e+01 3.0032117834e+01 4.9935713700e-03 0.0000e+00 0.0000e+00
       11 -1    0    0    0    0 -9.7524976663e-19 -1.8313517017e-18 +8.1878685180e-16 5.1100000000e-04 5.1099893000e-04 0.0000e+00 1.0000e+00
       50  1    1    2    0    0 -4.8035137048e-02 -6.2116626019e-02 +2.9857503713e+01 2.9857607385e+01 4.9935713700e-03 0.0000e+00 0.0000e+00
       11  1    1    2    0    0 +1.2264262853e-02 -5.0549371746e-03 +1.7451728308e-01 1.7502144939e-01 5.1099893000e-04 0.0000e+00 1.0000e+00
<vert_displacement>
380.93346472921019
</vert_displacement>
</event>
<event>
 4   1200 +8.6263000e+09 1.92635600e-02 7.81665300e-03            nan
       50 -1    0    0    0    0 +2.7402843454e-02 -4.3017581625e-02 +1.9820640603e+01 1.9820706856e+01 4.9935713700e-03 0.0000e+00 0.0000e+00
       11 -1    0    0    0    0 +2.7436757535e-18 -4.3070820688e-18 +1.9845170860e-15 5.1100000000e-04 5.1099893000e-04 0.0000e+00 1.0000e+00
       50  1    1    2    0    0 +3.2122586237e-02 -6.0134082362e-02 +1.9475887199e+01 1.9476007165e+01 4.9935713700e-03 0.0000e+00 0.0000e+00
       11  1    1    2    0    0 -4.7197427833e-03 +1.7116500737e-02 +3.4475340392e-01 3.4521069103e-01 5.1099893000e-04 0.0000e+00 1.0000e+00
<vert_displacement>
246.49949028614958
</vert_displacement>
</event>
<event>
 4   1200 +8.6263000e+09 2.86192500e-02 7.81665300e-03            nan
       50 -1    0    0    0    0 +8.4878986835e-03 -5.3907580555e-03 +1.9763588893e+01 1.9763592082e+01 4.9935713700e-03 0.0000e+00 0.0000e+00
       11 -1    0    0    0    0 -3.9932763382e-19 +2.5361738389e-19 -9.2981166279e-16 5.1100000000e-04 5.1099893000e-04 0.0000e+00 1.0000e+00
       50  1    1    2    0    0 +1.6547854475e-02 +2.1726948511e-02 +1.8953278061e+01 1.8953298396e+01 4.9935713700e-03 0.0000e+00 0.0000e+00
       11  1    1    2    0    0 -8.0599557915e-03 -2.7117706566e-02 +8.1031083141e-01 8.1080468518e-01 5.1099893000e-04 0.0000e+00 1.0000e+00
<vert_displacement>
454.43767230168191
</vert_displacement>
</event>
<event>
 4   1200 +8.6263000e+09 2.42250900e-02 7.81665300e-03            nan
       50 -1    0    0    0    0 -8.2437626945e-02 +1.3312682563e-01 +5.8112671180e+01 5.8112882352e+01 4.9935713700e-03 0.0000e+00 0.0000e+00
       11 -1    0    0    0    0 -3.9373435013e-20 +6.3583349155e-20 +2.7755474859e-17 5.1100000000e-04 5.1099893000e-04 0.0000e+00 1.0000e+00
       50  1    1    2    0    0 -1.0008875034e-01 +1.4675252202e-01 +5.7557479601e+01 5.7557753926e+01 4.9935713700e-03 0.0000e+00 0.0000e+00
       11  1    1    2    0    0 +1.7651123396e-02 -1.3625696384e-02 +5.5519157866e-01 5.5563942615e-01 5.1099893000e-04 0.0000e+00 1.0000e+00
<vert_displacement>
292.35215814845463
</vert_displacement>
</event>
<event>
 4   1200 +8.6263000e+09 1.93814700e-02 7.81665300e-03            nan
       50 -1    0    0    0    0 +7.2021314229e-02 +6.1946828964e-02 +3.2396066006e+01 3.2396205674e+01 4.9935713700e-03 0.0000e+00 0.0000e+00
       11 -1    0    0    0    0 -9.5024995779e-18 -8.1732709599e-18 -4.2743402678e-15 5.1100000000e-04 5.1099893000e-04 0.0000e+00 1.0000e+00
       50  1    1    2    0    0 +5.8564221721e-02 +4.7507838841e-02 +3.2049243327e+01 3.2049332435e+01 4.9935713700e-03 0.0000e+00 0.0000e+00
       11  1    1    2    0    0 +1.3457092508e-02 +1.4438990123e-02 +3.4682267905e-01 3.4738423914e-01 5.1099893000e-04 0.0000e+00 1.0000e+00
<vert_displacement>
423.11588048725389
</vert_displacement>
</event>
<event>
 4   1200 +8.6263000e+09 1.16783200e-02 7.81665300e-03            nan
       50 -1    0    0    0    0 -7.5925834128e-03 -5.5930190874e-04 +2.2648787893e+00 2.2648970895e+00 4.9935713700e-03 0.0000e+00 0.0000e+00
       11 -1    0    0    0    0 -1.0583852957e-18 -7.7965151501e-20 +3.1571788899e-16 5.1100000000e-04 5.1099893000e-04 0.0000e+00 1.0000e+00
       50  1    1    2    0    0 +3.1191219275e-03 +1.6631714501e-03 +2.1499429163e+00 2.1499516213e+00 4.9935713700e-03 0.0000e+00 0.0000e+00
       11  1    1    2    0    0 -1.0711705340e-02 -2.2224733589e-03 +1.1493587296e-01 1.1545646813e-01 5.1099893000e-04 0.0000e+00 1.0000e+00
<vert_displacement>
333.81701349222215
</vert_displacement>
</event>
<event>
 4   1200 +8.6263000e+09 1.70663800e-02 7.81665300e-03            nan
       50 -1    0    0    0    0 +2.8365361661e-02 -2.1923923230e-02 +1.2030954257e+01 1.2031008707e+01 4.9935713700e-03 0.0000e+00 0.0000e+00
       11 -1    0    0    0    0 +1.8486513496e-18 -1.4288444742e-18 +7.8409152998e-16 5.1100000000e-04 5.1099893000e-04 0.0000e+00 1.0000e+00
       50  1    1    2    0    0 +1.7074191335e-02 -9.0839837274e-03 +1.1764483606e+01 1.1764500563e+01 4.9935713700e-03 0.0000e+00 0.0000e+00
       11  1    1    2    0    0 +1.1291170326e-02 -1.2839939503e-02 +2.6647065033e-01 2.6701914385e-01 5.1099893000e-04 0.0000e+00 1.0000e+00
<vert_displacement>
315.43001503643563
</vert_displacement>
</event>
<event>
 4   1200 +8.6263000e+09 3.30234800e-02 7.81665300e-03            nan
       50 -1    0    0    0    0 -1.9782938962e-02 +1.0167947698e-02 +7.9150186838e+00 7.9150515129e+00 4.9935713700e-03 0.0000e+00 0.0000e+00
       11 -1    0    0    0    0 -1.3701070158e-18 +7.0420155996e-19 +5.4817045386e-16 5.1100000000e-04 5.1099893000e-04 0.0000e+00 1.0000e+00
       50  1    1    2    0    0 -4.9126512617e-02 +1.2272282683e-02 +6.6784379290e+00 6.6786317558e+00 4.9935713700e-03 0.0000e+00 0.0000e+00
       11  1    1    2    0    0 +2.9343573656e-02 -2.1043349850e-03 +1.2365807548e+00 1.2369307571e+00 5.1099893000e-04 0.0000e+00 1.0000e+00
<vert_displacement>
106.91879440098926
</vert_displacement>
</event>
<event>
 4   1200 +8.6263000e+09 7.25418100e-03 7.81665300e-03            nan
       50 -1    0    0    0    0 -1.7805020643e-03 -3.6193041274e-03 +6.5667289645e+00 6.5667321020e+00 4.9935713700e-03 0.0000e+00 0.0000e+00
       11 -1    0    0    0    0 +2.3329489756e-19 +4.7422870355e-19 -8.6042268177e-16 5.1100000000e-04 5.1099893000e-04 0.0000e+00 1.0000e+00
       50  1    1    2    0    0 -1.1670945343e-03 -8.8311730290e-03 +6.5395196260e+00 6.5395275996e+00 4.9935713700e-03 0.0000e+00 0.0000e+00
       11  1    1    2    0    0 -6.1340752999e-04 +5.2118689016e-03 +2.7209338552e-02 2.7715502351e-02 5.1099893000e-04 0.0000e+00 1.0000e+00
<vert_displacement>
58.633848909933576
</vert_displacement>
</event>
<event>
 4   1200 +8.6263000e+09 1.03584600e-02 7.81665300e-03            nan
       50 -1    0    0    0    0 +1.3077938048e-02 -9.6124827370e-03 +1.7272004326e+01 1.7272012674e+01 4.9935713700e-03 0.0000e+00 0.0000e+00
       11 -1    0    0    0    0 +5.4641162733e-19 -4.0162083012e-19 +7.2164464738e-16 5.1100000000e-04 5.1099893000e-04 0.0000e+00 1.0000e+00
       50  1    1    2    0    0 +4.6807274486e-03 -1.3155552236e-02 +1.7191037159e+01 1.7191043556e+01 4.9935713700e-03 0.0000e+00 0.0000e+00
       11  1    1    2    0    0 +8.3972105992e-03 +3.5430694995e-03 +8.0967166681e-02 8.1480118358e-02 5.1099893000e-04 0.0000e+00 1.0000e+00
<vert_displacement>
497.16679351184212
</vert_displacement>
</event>
<event>
 4   1200 +8.6263000e+09 1.88172300e-02 7.81665300e-03            nan
       50 -1    0    0    0    0 +4.0056538432e-03 -6.9279713055e-03 +1.3562550406e+01 1.3562553686e+01 4.9935713700e-03 0.0000e+00 0.0000e+00
       11 -1    0    0    0    0 +3.4839438246e-19 -6.0256486934e-19 +1.1796117583e-15 5.1100000000e-04 5.1099893000e-04 0.0000e+00 1.0000e+00
       50  1    1    2    0    0 -1.3053025924e-02 -1.3199126313e-02 +1.3232423012e+01 1.3232436975e+01 4.9935713700e-03 0.0000e+00 0.0000e+00
       11  1    1    2    0    0 +1.7058679767e-02 +6.2711550076e-03 +3.3012739398e-01 3.3062771105e-01 5.1099893000e-04 0.0000e+00 1.0000e+00
<vert_displacement>
75.177012059812540
</vert_displacement>
</event>
<event>
 4   1200 +8.6263000e+09 1.84471100e-02 7.81665300e-03            nan
       50 -1    0    0    0    0 -2.3844008951e-02 -2.0349524884e-03 +6.9883841190e+00 6.9884268765e+00 4.9935713700e-03 0.0000e+00 0.0000e+00
       11 -1    0    0    0    0 +1.1127255669e-18 +9.4964888912e-20 -3.2612610138e-16 5.1100000000e-04 5.1099893000e-04 0.0000e+00 1.0000e+00
       50  1    1    2    0    0 -6.7820127286e-03 -9.7321503966e-03 +6.6648049006e+00 6.6648173275e+00 4.9935713700e-03 0.0000e+00 0.0000e+00
       11  1    1    2    0    0 -1.7061996223e-02 +7.6971979082e-03 +3.2357921845e-01 3.2412054903e-01 5.1099893000e-04 0.0000e+00 1.0000e+00
<vert_displacement>
168.92882387467964
</vert_displacement>
</event>
<event>
 4   1200 +8.6263000e+09 1.27456400e-02 7.81665300e-03            nan
       50 -1    0    0    0    0 -3.8884964493e-02 -1.2775617821e-03 +1.3484925387e+01 1.3484982436e+01 4.9935713700e-03 0.0000e+00 0.0000e+00
       11 -1    0    0    0    0 +2.0809178608e-18 +6.8368356901e-20 -7.2164196252e-16 5.1100000000e-04 5.1099893000e-04 0.0000e+00 1.0000e+00
       50  1    1    2    0    0 -4.7916631461e-02 +5.7145556258e-03 +1.3348966367e+01 1.3349054524e+01 4.9935713700e-03 0.0000e+00 0.0000e+00
       11  1    1    2    0    0 +9.0316669677e-03 -6.9921174079e-03 +1.3595901980e-01 1.3643891270e-01 5.1099893000e-04 0.0000e+00 1.0000e+00
<vert_displacement>
49.196351183835930
</vert_displacement>
</event>
<event>
 4   1200 +8.6263000e+09 7.88193400e-03 7.81665300e-03            nan
       50 -1    0    0    0    0 -1.2333858926e-03 +2.4891656358e-03 +5.0104560731e+00 5.0104593316e+00 4.9935713700e-03 0.0000e+00 0.0000e+00
       11 -1    0    0    0    0 +1.1615042702e-19 -2.3440972793e-19 -4.7184471294e-16 5.1100000000e-04 5.1099893000e-04 0.0000e+00 1.0000e+00
       50  1    1    2    0    0 -4.0255370289e-03 -2.9459224083e-03 +4.9737962296e+00 4.9738012377e+00 4.9935713700e-03 0.0000e+00 0.0000e+00
       11  1    1    2    0    0 +2.7921511363e-03 +5.4350880441e-03 +3.6659843566e-02 3.7169093885e-02 5.1099893000e-04 0.0000e+00 1.0000e+00
<vert_displacement>
406.88276584224451
</vert_displacement>
</event>
<event>
 4   1200 +8.6263000e+09 1.46216000e-02 7.81665300e-03            nan
       50 -1    0    0    0    0 +2.9721737265e-02 +8.3299213266e-03 +1.0100889993e+01 1.0100938390e+01 4.9935713700e-03 0.0000e+00 0.0000e+00
       11 -1    0    0    0    0 +3.7159867504e-18 +1.0414558546e-18 +1.2628727940e-15 5.1100000000e-04 5.1099893000e-04 0.0000e+00 1.0000e+00
       50  1    1    2    0    0 +2.0808948723e-02 -2.7334931280e-03 +9.9126057533e+00 9.9126292294e+00 4.9935713700e-03 0.0000e+00 0.0000e+00
       11  1    1    2    0    0 +8.9127885422e-03 +1.1063414455e-02 +1.8828423970e-01 1.8882016041e-01 5.1099893000e-04 0.0000e+00 1.0000e+00
<vert_displacement>
368.98797182065357
</vert_displacement>
</event>
<event>
 4   1200 +8.6263000e+09 5.09087800e-03 7.81665300e-03            nan
       50 -1    0    0    0    0 -3.3364150242e-02 +4.5966322272e-03 +1.4649741756e+01 1.4649781321e+01 4.9935713700e-03 0.0000e+00 0.0000e+00
       11 -1    0    0    0    0 -1.5012838195e-18 +2.0683426782e-19 +6.5919317887e-16 5.1100000000e-04 5.1099893000e-04 0.0000e+00 1.0000e+00
       50  1    1    2    0    0 -3.2475346057e-02 +4.1545332099e-03 +1.4648783664e+01 1.4648821102e+01 4.9935713700e-03 0.0000e+00 0.0000e+00
       11  1    1    2    0    0 -8.8880418542e-04 +4.4209901729e-04 +9.5809173126e-04 1.4712185742e-03 5.1099893000e-04 0.0000e+00 1.0000e+00
<vert_displacement>
72.588859098228284
</vert_displacement>
</event>
<event>
 4   1200 +8.6263000e+09 2.90210500e-02 7.81665300e-03            nan
       50 -1    0    0    0    0 +1.1416798749e-02 -9.5096831636e-03 +8.9778897379e+00 8.9779034222e+00 4.9935713700e-03 0.0000e+00 0.0000e+00
       11 -1    0    0    0    0 -8.4709274780e-19 +7.0559040402e-19 -6.6613290248e-16 5.1100000000e-04 5.1099893000e-04 0.0000e+00 1.0000e+00
       50  1    1    2    0    0 +3.1812971046e-02 +1.0244368357e-02 +8.0901259124e+00 8.0901964888e+00 4.9935713700e-03 0.0000e+00 0.0000e+00
       11  1    1    2    0    0 -2.0396172298e-02 -1.9754051520e-02 +8.8776382545e-01 8.8821793345e-01 5.1099893000e-04 0.0000e+00 1.0000e+00
<vert_displacement>
220.27662761902118
</vert_displacement>
</event>
<event>
 4   1200 +8.6263000e+09 9.57654000e-03 7.81665300e-03            nan
       50 -1    0    0    0    0 +1.7704454451e-02 +2.4219224807e-02 +9.4868011945e+00 9.4868499439e+00 4.9935713700e-03 0.0000e+00 0.0000e+00
       11 -1    0    0    0    0 +1.2431457739e-18 +1.7005904955e-18 +6.6613048404e-16 5.1100000000e-04 5.1099893000e-04 0.0000e+00 1.0000e+00
       50  1    1    2    0    0 +1.9743057483e-02 +1.6170734634e-02 +9.4210196052e+00 9.4210554938e+00 4.9935713700e-03 0.0000e+00 0.0000e+00
       11  1    1    2    0    0 -2.0386030317e-03 +8.0484901727e-03 +6.5781589323e-02 6.6305450079e-02 5.1099893000e-04 0.0000e+00 1.0000e+00
<vert_displacement>
295.46962894679302
</vert_displacement>
</event>
<event>
 4   1200 +8.6263000e+09 1.09827500e-02 7.81665300e-03            nan
       50 -1    0    0    0    0 +2.3833086535e-02 +2.0117969371e-02 +9.9808844185e+00 9.9809343982e+00 4.9935713700e-03 0.0000e+00 0.0000e+00
       11 -1    0    0    0    0 -2.6510588764e-18 -2.2378100796e-18 -1.1102176041e-15 5.1100000000e-04 5.1099893000e-04 0.0000e+00 1.0000e+00
       50  1    1    2    0    0 +1.8494657228e-02 +1.1588106489e-02 +9.8863863657e+00 9.8864117173e+00 4.9935713700e-03 0.0000e+00 0.0000e+00
       11  1    1    2    0    0 +5.3384293074e-03 +8.5298628825e-03 +9.4498052864e-02 9.5033680889e-02 5.1099893000e-04 0.0000e+00 1.0000e+00
<vert_displacement>
57.729656474065990
</vert_displacement>
</event>
<event>
 4   1200 +8.6263000e+09 2.12487300e-02 7.81665300e-03            nan
       50 -1    0    0    0    0 -2.1409562178e-03 +2.8311014969e-03 +9.5237750549e+00 9.5237770255e+00 4.9935713700e-03 0.0000e+00 0.0000e+00
       11 -1    0    0    0    0 -3.0105523468e-19 +3.9810152045e-19 +1.3392064304e-15 5.1100000000e-04 5.1099893000e-04 0.0000e+00 1.0000e+00
       50  1    1    2    0    0 +2.5604135033e-03 -1.7433144596e-02 +9.0862147848e+00 9.0862332417e+00 4.9935713700e-03 0.0000e+00 0.0000e+00
       11  1    1    2    0    0 -4.7013697211e-03 +2.0264246093e-02 +4.3756027013e-01 4.3805478386e-01 5.1099893000e-04 0.0000e+00 1.0000e+00
<vert_displacement>
374.06757091670323
</vert_displacement>
</event>
<event>
 4   1200 +8.6263000e+09 2.85642100e-02 7.81665300e-03            nan
       50 -1    0    0    0    0 +5.3402179933e-02 +3.5155291606e-02 +2.0285040586e+01 2.0285141956e+01 4.9935713700e-03 0.0000e+00 0.0000e+00
       11 -1    0    0    0    0 +4.4937230370e-18 +2.9582714406e-18 +1.7069594219e-15 5.1100000000e-04 5.1099893000e-04 0.0000e+00 1.0000e+00
       50  1    1    2    0    0 +2.9158239387e-02 +1.6392077438e-02 +1.9479095410e+01 1.9479124771e+01 4.9935713700e-03 0.0000e+00 0.0000e+00
       11  1    1    2    0    0 +2.4243940546e-02 +1.8763214168e-02 +8.0594517540e-01 8.0652818533e-01 5.1099893000e-04 0.0000e+00 1.0000e+00
<vert_displacement>
85.824170822647673
</vert_displacement>
</event>
<event>
 4   1200 +8.6263000e+09 1.67098100e-02 7.81665300e-03            nan
       50 -1    0    0    0    0 +2.5630318261e-02 +9.7885035664e-03 +9.6737093911e+00 9.6737495857e+00 4.9935713700e-03 0.0000e+00 0.0000e+00
       11 -1    0    0    0    0 -1.0295264055e-18 -3.9318758312e-19 -3.8857649584e-16 5.1100000000e-04 5.1099893000e-04 0.0000e+00 1.0000e+00
       50  1    1    2    0    0 +1.3144470116e-02 +2.0246088266e-02 +9.4181394759e+00 9.4181717337e+00 4.9935713700e-03 0.0000e+00 0.0000e+00
       11  1    1    2    0    0 +1.2485848146e-02 -1.0457584699e-02 +2.5556991519e-01 2.5608885207e-01 5.1099893000e-04 0.0000e+00 1.0000e+00
<vert_displacement>
16.852370253458187
</vert_displacement>
</event>
<event>
 4   1200 +8.6263000e+09 1.10158800e-02 7.81665300e-03            nan
       50 -1    0    0    0    0 -1.3613787378e-03 -3.5578422259e-04 +1.2269086575e+00 1.2269196264e+00 4.9935713700e-03 0.0000e+00 0.0000e+00
       11 -1    0    0    0    0 -1.1549094980e-19 -3.0182532348e-20 +1.0408334011e-16 5.1100000000e-04 5.1099893000e-04 0.0000e+00 1.0000e+00
       50  1    1    2    0    0 -4.7287901897e-03 -9.5067974719e-03 +1.1236661553e+00 1.1237274157e+00 4.9935713700e-03 0.0000e+00 0.0000e+00
       11  1    1    2    0    0 +3.3674114519e-03 +9.1510132493e-03 +1.0324250229e-01 1.0370321066e-01 5.1099893000e-04 0.0000e+00 1.0000e+00
<vert_displacement>
211.65590496772700
</vert_displacement>
</event>
<event>
 4   1200 +8.6263000e+09 9.29535600e-03 7.81665300e-03            nan
       50 -1    0    0    0    0 +1.4798094818e-02 -5.3896230887e-02 +2.8263725915e+01 2.8263781618e+01 4.9935713700e-03 0.0000e+00 0.0000e+00
       11 -1    0    0    0    0 -1.4023392688e-18 +5.1074683562e-18 -2.6784078101e-15 5.1100000000e-04 5.1099893000e-04 0.0000e+00 1.0000e+00
       50  1    1    2    0    0 +6.9578603356e-03 -5.3079564974e-02 +2.8203457025e+01 2.8203508274e+01 4.9935713700e-03 0.0000e+00 0.0000e+00
       11  1    1    2    0    0 +7.8402344819e-03 -8.1666591273e-04 +6.0268890324e-02 6.0784344043e-02 5.1099893000e-04 0.0000e+00 1.0000e+00
<vert_displacement>
384.80243817611614
</vert_displacement>
</event>
<event>
 4   1200 +8.6263000e+09 1.21230700e-02 7.81665300e-03            nan
       50 -1    0    0    0    0 -5.3943099149e-03 +1.5284167452e-03 +2.9883326232e+00 2.9883420550e+00 4.9935713700e-03 0.0000e+00 0.0000e+00
       11 -1    0    0    0    0 -4.3213111268e-19 +1.2243946661e-19 +2.3939141835e-16 5.1100000000e-04 5.1099893000e-04 0.0000e+00 1.0000e+00
       50  1    1    2    0    0 -1.6091474616e-02 +3.1193185595e-03 +2.8636425723e+00 2.8636938355e+00 4.9935713700e-03 0.0000e+00 0.0000e+00
       11  1    1    2    0    0 +1.0697164701e-02 -1.5909018143e-03 +1.2469005090e-01 1.2515921946e-01 5.1099893000e-04 0.0000e+00 1.0000e+00
<vert_displacement>
435.92365813916467
</vert_displacement>
</event>
<event>
 4   1200 +8.6263000e+09 8.80656400e-03 7.81665300e-03            nan
       50 -1    0    0    0    0 -4.5855734526e-02 +1.4395923826e-02 +1.5847727617e+01 1.5847801284e+01 4.9935713700e-03 0.0000e+00 0.0000e+00
       11 -1    0    0    0    0 -6.4248779873e-18 +2.0170226265e-18 +2.2204358379e-15 5.1100000000e-04 5.1099893000e-04 0.0000e+00 -1.0000e+00
       50  1    1    2    0    0 -4.9874689447e-02 +2.0285642803e-02 +1.5796052996e+01 1.5796145548e+01 4.9935713700e-03 0.0000e+00 0.0000e+00
       11  1    1    2    0    0 +4.0189549205e-03 -5.8897189775e-03 +5.1674621128e-02 5.2166736307e-02 5.1099893000e-04 0.0000e+00 -1.0000e+00
<vert_displacement>
414.30762206554397
</vert_displacement>
</event>
<event>
 4   1200 +8.6263000e+09 2.63078600e-02 7.81665300e-03            nan
       50 -1    0    0    0    0 -3.2228449172e-02 +2.4464045794e-02 +1.8679304666e+01 1.8679349156e+01 4.9935713700e-03 0.0000e+00 0.0000e+00
       11 -1    0    0    0    0 +9.0987456076e-19 -6.9066968758e-19 -5.2735469949e-16 5.1100000000e-04 5.1099893000e-04 0.0000e+00 1.0000e+00
       50  1    1    2    0    0 -5.6878213452e-02 +2.4330401162e-02 +1.8001837630e+01 1.8001944620e+01 4.9935713700e-03 0.0000e+00 0.0000e+00
       11  1    1    2    0    0 +2.4649764280e-02 +1.3364463197e-04 +6.7746703595e-01 6.7791553652e-01 5.1099893000e-04 0.0000e+00 1.0000e+00
<vert_displacement>
411.67361757813956
</vert_displacement>
</event>
<event>
 4   1200 +8.6263000e+09 3.05930700e-02 7.81665300e-03            nan
       50 -1    0    0    0    0 -9.5843692880e-02 -3.2622880983e-02 +3.4507551432e+01 3.4507700315e+01 4.9935713700e-03 0.0000e+00 0.0000e+00
       11 -1    0    0    0    0 +1.0291508329e-17 +3.5029811692e-18 -3.7053533967e-15 5.1100000000e-04 5.1099893000e-04 0.0000e+00 1.0000e+00
       50  1    1    2    0    0 -8.7882033269e-02 -2.0647509916e-03 +3.3591878775e+01 3.3591994167e+01 4.9935713700e-03 0.0000e+00 0.0000e+00
       11  1    1    2    0    0 -7.9616596109e-03 -3.0558129991e-02 +9.1567265651e-01 9.1621714803e-01 5.1099893000e-04 0.0000e+00 1.0000e+00
<vert_displacement>
451.96137642114695
</vert_displacement>
</event>
<event>
 4   1200 +8.6263000e+09 7.39330900e-03 7.81665300e-03            nan
       50 -1    0    0    0    0 -2.6081999573e-02 -2.2228157367e-02 +9.3926870631e+00 9.3927509049e+00 4.9935713700e-03 0.0000e+00 0.0000e+00
       11 -1    0    0    0    0 +1.8690035282e-18 +1.5928420070e-18 -6.7306822897e-16 5.1100000000e-04 5.1099893000e-04 0.0000e+00 1.0000e+00
       50  1    1    2    0    0 -2.6508927871e-02 -2.7587463195e-02 +9.3634951580e+00 9.3635746540e+00 4.9935713700e-03 0.0000e+00 0.0000e+00
       11  1    1    2    0    0 +4.2692829859e-04 +5.3593058283e-03 +2.9191905102e-02 2.9687250969e-02 5.1099893000e-04 0.0000e+00 1.0000e+00
<vert_displacement>
341.50315124567084
</vert_displacement>
</event>
<event>
 4   1200 +8.6263000e+09 1.11093600e-02 7.81665300e-03            nan
       50 -1    0    0    0    0 -1.5233240177e-02 -6.4724462466e-04 +6.0449618272e+00 6.0449831182e+00 4.9935713700e-03 0.0000e+00 0.0000e+00
       11 -1    0    0    0    0 +1.0491530388e-18 +4.4577427843e-20 -4.1633230992e-16 5.1100000000e-04 5.1099893000e-04 0.0000e+00 1.0000e+00
       50  1    1    2    0    0 -2.0765837424e-02 -8.7039503105e-03 +5.9469824729e+00 5.9470271941e+00 4.9935713700e-03 0.0000e+00 0.0000e+00
       11  1    1    2    0    0 +5.5325972466e-03 +8.0567056859e-03 +9.7979354311e-02 9.8466924040e-02 5.1099893000e-04 0.0000e+00 1.0000e+00
<vert_displacement>
490.62312739089498
</vert_displacement>
</event>
<event>
 4   1200 +8.6263000e+09 1.53186500e-02 7.81665300e-03            nan
       50 -1    0    0    0    0 -8.1802525745e-03 +1.4269981499e-02 +8.8526480948e+00 8.8526647838e+00 4.9935713700e-03 0.0000e+00 0.0000e+00
       11 -1    0    0    0    0 +2.5006195201e-19 -4.3621873486e-19 -2.7061639514e-16 5.1100000000e-04 5.1099893000e-04 0.0000e+00 1.0000e+00
       50  1    1    2    0    0 -2.1959328871e-02 +1.7735168705e-02 +8.6424007459e+00 8.6424482837e+00 4.9935713700e-03 0.0000e+00 0.0000e+00
       11  1    1    2    0    0 +1.3779076297e-02 -3.4651872054e-03 +2.1024734894e-01 2.1072750015e-01 5.1099893000e-04 0.0000e+00 1.0000e+00
<vert_displacement>
184.59210369940166
</vert_displacement>
</event>
<event>
 4   1200 +8.6263000e+09 8.68758100e-03 7.81665300e-03            nan
       50 -1    0    0    0    0 +4.6922106712e-02 +1.6410704636e-02 +1.5074131039e+01 1.5074213827e+01 4.9935713700e-03 0.0000e+00 0.0000e+00
       11 -1    0    0    0    0 +1.2959383826e-18 +4.5324610323e-19 +4.1633137055e-16 5.1100000000e-04 5.1099893000e-04 0.0000e+00 1.0000e+00
       50  1    1    2    0    0 +5.1264094155e-02 +2.1863054513e-02 +1.5024495666e+01 1.5024599860e+01 4.9935713700e-03 0.0000e+00 0.0000e+00
       11  1    1    2    0    0 -4.3419874427e-03 -5.4523498772e-03 +4.9635372862e-02 5.0124967164e-02 5.1099893000e-04 0.0000e+00 1.0000e+00
<vert_displacement>
23.604783981826895
</vert_displacement>
</event>
<event>
 4   1200 +8.6263000e+09 4.23625600e-02 7.81665300e-03            nan
       50 -1    0    0    0    0 -1.0279576684e-02 -7.4952113424e-03 +7.1655902600e+00 7.1656032934e+00 4.9935713700e-03 0.0000e+00 0.0000e+00
       11 -1    0    0    0    0 +7.6648480131e-19 +5.5887180506e-19 -5.3429398852e-16 5.1100000000e-04 5.1099893000e-04 0.0000e+00 1.0000e+00
       50  1    1    2    0    0 -5.2455490447e-03 -4.6467566973e-02 +4.2140843555e+00 4.2143467633e+00 4.9935713700e-03 0.0000e+00 0.0000e+00
       11  1    1    2    0    0 -5.0340276392e-03 +3.8972355630e-02 +2.9515059045e+00 2.9517675300e+00 5.1099893000e-04 0.0000e+00 1.0000e+00
<vert_displacement>
64.917003603351702
</vert_displacement>
</event>
<event>
 4   1200 +8.6263000e+09 1.50633300e-02 7.81665300e-03            nan
       50 -1    0    0    0    0 -4.9613368566e-04 -9.3067495802e-04 +1.6643475963e+00 1.6643554216e+00 4.9935713700e-03 0.0000e+00 0.0000e+00
       11 -1    0    0    0    0 -2.4821389403e-20 -4.6561332577e-20 +8.3266710129e-17 5.1100000000e-04 5.1099893000e-04 0.0000e+00 1.0000e+00
       50  1    1    2    0    0 -1.4634896762e-02 -4.5429877930e-04 +1.4344446510e+00 1.4345280685e+00 4.9935713700e-03 0.0000e+00 0.0000e+00
       11  1    1    2    0    0 +1.4138763077e-02 -4.7637617872e-04 +2.2990294526e-01 2.3033835311e-01 5.1099893000e-04 0.0000e+00 1.0000e+00
<vert_displacement>
438.30954887913532
</vert_displacement>
</event>
<event>
 4   1200 +8.6263000e+09 2.37163900e-02 7.81665300e-03            nan
       50 -1    0    0    0    0 +5.8449948728e-02 +4.9647402709e-02 +2.2939636641e+01 2.2939765374e+01 4.9935713700e-03 0.0000e+00 0.0000e+00
       11 -1    0    0    0    0 -3.0056218669e-18 -2.5529760498e-18 -1.1796053719e-15 5.1100000000e-04 5.1099893000e-04 0.0000e+00 1.0000e+00
       50  1    1    2    0    0 +7.3300809247e-02 +3.1918555717e-02 +2.2401001402e+01 2.2401144626e+01 4.9935713700e-03 0.0000e+00 0.0000e+00
       11  1    1    2    0    0 -1.4850860519e-02 +1.7728846992e-02 +5.3863523891e-01 5.3913174809e-01 5.1099893000e-04 0.0000e+00 1.0000e+00
<vert_displacement>
255.37427914267093
</vert_displacement>
</event>
<event>
 4   1200 +8.6263000e+09 9.81557600e-03 7.81665300e-03            nan
       50 -1    0    0    0    0 -3.6293733038e-02 +7.2379419060e-02 +3.6148800664e+01 3.6148891690e+01 4.9935713700e-03 0.0000e+00 0.0000e+00
       11 -1    0    0    0    0 +1.4908730990e-18 -2.9732000478e-18 -1.4849195705e-15 5.1100000000e-04 5.1099893000e-04 0.0000e+00 1.0000e+00
       50  1    1    2    0    0 -4.3779484279e-02 +7.6022863866e-02 +3.6078776434e+01 3.6078883436e+01 4.9935713700e-03 0.0000e+00 0.0000e+00
       11  1    1    2    0    0 +7.4857512409e-03 -3.6434448061e-03 +7.0024230278e-02 7.0519253453e-02 5.1099893000e-04 0.0000e+00 1.0000e+00
<vert_displacement>
398.89152573684873
</vert_displacement>
</event>
<event>
 4   1200 +8.6263000e+09 3.60334100e-02 7.81665300e-03            nan
       50 -1    0    0    0    0 +3.1238036920e-02 -2.5260781033e-02 +1.1536582769e+01 1.1536653797e+01 4.9935713700e-03 0.0000e+00 0.0000e+00
       11 -1    0    0    0    0 +2.4425165433e-18 -1.9751521431e-18 +9.0205073826e-16 5.1100000000e-04 5.1099893000e-04 0.0000e+00 1.0000e+00
       50  1    1    2    0    0 +3.6373227057e-02 +1.2388258679e-02 +1.0114968289e+01 1.0115042506e+01 4.9935713700e-03 0.0000e+00 0.0000e+00
       11  1    1    2    0    0 -5.1351901369e-03 -3.7649039712e-02 +1.4216144799e+00 1.4221222911e+00 5.1099893000e-04 0.0000e+00 1.0000e+00
<vert_displacement>
354.72056763301765
</vert_displacement>
</event>
<event>
 4   1200 +8.6263000e+09 7.91464300e-03 7.81665300e-03            nan
       50 -1    0    0    0    0 -3.9025953926e-02 +3.6956460210e-02 +1.7018973579e+01 1.7019059182e+01 4.9935713700e-03 0.0000e+00 0.0000e+00
       11 -1    0    0    0    0 +2.5458231274e-19 -2.4108215596e-19 -1.1102174882e-16 5.1100000000e-04 5.1099893000e-04 0.0000e+00 1.0000e+00
       50  1    1    2    0    0 -3.5165018450e-02 +4.1718329077e-02 +1.6981996210e+01 1.6982084596e+01 4.9935713700e-03 0.0000e+00 0.0000e+00
       11  1    1    2    0    0 -3.8609354757e-03 -4.7618688679e-03 +3.6977369170e-02 3.7485586143e-02 5.1099893000e-04 0.0000e+00 1.0000e+00
<vert_displacement>
139.90930946825870
</vert_displacement>
</event>
<event>
 4   1200 +8.6263000e+09 7.41865000e-03 7.81665300e-03            nan
       50 -1    0    0    0    0 -9.5186679280e-03 +5.7751236126e-03 +5.6960186706e+00 5.6960317405e+00 4.9935713700e-03 0.0000e+00 0.0000e+00
       11 -1    0    0    0    0 -1.2639232052e-18 +7.6684183143e-19 +7.5633799070e-16 5.1100000000e-04 5.1099893000e-04 0.0000e+00 1.0000e+00
       50  1    1    2    0    0 -6.5161902827e-03 +1.1212153790e-03 +5.6664184683e+00 5.6664245263e+00 4.9935713700e-03 0.0000e+00 0.0000e+00
       11  1    1    2    0    0 -3.0024776453e-03 +4.6539082336e-03 +2.9600202288e-02 3.0118214244e-02 5.1099893000e-04 0.0000e+00 1.0000e+00
<vert_displacement>
4.4316049570980294
</vert_displacement>
</event>
<event>
 4   1200 +8.6263000e+09 9.85315200e-03 7.81665300e-03            nan
       50 -1    0    0    0    0 -1.1904779330e-01 +1.0466774594e-01 +4.7978484074e+01 4.7978746197e+01 4.9935713700e-03 0.0000e+00 0.0000e+00
       11 -1    0    0    0    0 +4.7175147569e-18 -4.1476756717e-18 -1.9012465528e-15 5.1100000000e-04 5.1099893000e-04 0.0000e+00 1.0000e+00
       50  1    1    2    0    0 -1.1619195314e-01 +1.1257354086e-01 +4.7907772801e+01 4.7908046225e+01 4.9935713700e-03 0.0000e+00 0.0000e+00
       11  1    1    2    0    0 -2.8558401589e-03 -7.9057949190e-03 +7.0711272420e-02 7.1210972353e-02 5.1099893000e-04 0.0000e+00 1.0000e+00
<vert_displacement>
79.861234890018579
</vert_displacement>
</event>
<event>
 4   1200 +8.6263000e+09 6.32380600e-03 7.81665300e-03            nan
       50 -1    0    0    0    0 +2.5518001193e-02 +1.4440786872e-02 +1.2794758941e+01 1.2794793512e+01 4.9935713700e-03 0.0000e+00 0.0000e+00
       11 -1    0    0    0    0 -7.1962624832e-19 -4.0724072395e-19 -3.6082153557e-16 5.1100000000e-04 5.1099893000e-04 0.0000e+00 1.0000e+00
       50  1    1    2    0    0 +2.7278792595e-02 +1.0981768791e-02 +1.2780010985e+01 1.2780045792e+01 4.9935713700e-03 0.0000e+00 0.0000e+00
       11  1    1    2    0    0 -1.7607914024e-03 +3.4590180804e-03 +1.4747955881e-02 1.5258719311e-02 5.1099893000e-04 0.0000e+00 1.0000e+00
<vert_displacement>
154.65373175896343
</vert_displacement>
</event>
<event>
 4   1200 +8.6263000e+09 2.33408000e-02 7.81665300e-03            nan
       50 -1    0    0    0    0 -3.5810533089e-02 -3.4076498002e-02 +1.5147200010e+01 1.5147281495e+01 4.9935713700e-03 0.0000e+00 0.0000e+00
       11 -1    0    0    0    0 -3.9371104841e-18 -3.7464658013e-18 +1.6653256688e-15 5.1100000000e-04 5.1099893000e-04 0.0000e+00 1.0000e+00
       50  1    1    2    0    0 -1.2023215657e-02 -3.6317998149e-02 +1.4620196530e+01 1.4620247435e+01 4.9935713700e-03 0.0000e+00 0.0000e+00
       11  1    1    2    0    0 -2.3787317432e-02 +2.2415001475e-03 +5.2700348050e-01 5.2754506004e-01 5.1099893000e-04 0.0000e+00 1.0000e+00
<vert_displacement>
101.00042215032840
</vert_displacement>
</event>
<event>
 4   1200 +8.6263000e+09 1.74060700e-02 7.81665300e-03            nan
       50 -1    0    0    0    0 -4.7104491550e-02 +3.0718742516e-02 +3.1017607265e+01 3.1017658646e+01 4.9935713700e-03 0.0000e+00 0.0000e+00
       11 -1    0    0    0    0 -1.8546255084e-18 +1.2094762428e-18 +1.2212433199e-15 5.1100000000e-04 5.1099893000e-04 0.0000e+00 1.0000e+00
       50  1    1    2    0    0 -3.9982615725e-02 +4.5713794926e-02 +3.0743116992e+01 3.0743177384e+01 4.9935713700e-03 0.0000e+00 0.0000e+00
       11  1    1    2    0    0 -7.1218758253e-03 -1.4995052410e-02 +2.7449027301e-01 2.7499226136e-01 5.1099893000e-04 0.0000e+00 1.0000e+00
<vert_displacement>
383.79365698775388
</vert_displacement>
</event>
<event>
 4   1200 +8.6263000e+09 1.16965100e-02 7.81665300e-03            nan
       50 -1    0    0    0    0 +2.9777052401e-02 +1.1945128825e-03 +1.0631310983e+01 1.0631353924e+01 4.9935713700e-03 0.0000e+00 0.0000e+00
       11 -1    0    0    0    0 +8.7457274252e-19 +3.5083674284e-20 +3.1224899892e-16 5.1100000000e-04 5.1099893000e-04 0.0000e+00 1.0000e+00
       50  1    1    2    0    0 +2.2589364091e-02 -6.8532985653e-03 +1.0520708289e+01 1.0520735957e+01 4.9935713700e-03 0.0000e+00 0.0000e+00
       11  1    1    2    0    0 +7.1876883108e-03 +8.0478114478e-03 +1.1060269425e-01 1.1112896664e-01 5.1099893000e-04 0.0000e+00 1.0000e+00
<vert_displacement>
247.01291510613066
</vert_displacement>
</event>
<event>
 4   1200 +8.6263000e+09 9.27870700e-03 7.81665300e-03            nan
       50 -1    0    0    0    0 +3.8980317289e-02 +2.2519458174e-02 +1.7072412995e+01 1.7072473078e+01 4.9935713700e-03 0.0000e+00 0.0000e+00
       11 -1    0    0    0    0 +1.9011677782e-18 +1.0983304201e-18 +8.3266437369e-16 5.1100000000e-04 5.1099893000e-04 0.0000e+00 1.0000e+00
       50  1    1    2    0    0 +4.6437932856e-02 +2.0575192075e-02 +1.7012342859e+01 1.7012419413e+01 4.9935713700e-03 0.0000e+00 0.0000e+00
       11  1    1    2    0    0 -7.4576155666e-03 +1.9442660993e-03 +6.0070136382e-02 6.0564664661e-02 5.1099893000e-04 0.0000e+00 1.0000e+00
<vert_displacement>
132.20844931729624
</vert_displacement>
</event>
<event>
 4   1200 +8.6263000e+09 1.14686900e-02 7.81665300e-03            nan
       50 -1    0    0    0    0 +2.7050828147e-02 -4.5341825365e-02 +1.8461826246e+01 1.8461902418e+01 4.9935713700e-03 0.0000e+00 0.0000e+00
       11 -1    0    0    0    0 -5.8968810960e-19 +9.8841836340e-19 -4.0245420065e-16 5.1100000000e-04 5.1099893000e-04 0.0000e+00 1.0000e+00
       50  1    1    2    0    0 +2.8008517854e-02 -3.4819718771e-02 +1.8356949963e+01 1.8357005033e+01 4.9935713700e-03 0.0000e+00 0.0000e+00
       11  1    1    2    0    0 -9.5768970695e-04 -1.0522106594e-02 +1.0487628251e-01 1.0540838511e-01 5.1099893000e-04 0.0000e+00 1.0000e+00
<vert_displacement>
131.23489938517915
</vert_displacement>
</event>
<event>
 4   1200 +8.6263000e+09 3.14211200e-02 7.81665300e-03            nan
       50 -1    0    0    0    0 -4.4626069276e-02 +4.8733655017e-02 +2.3179714024e+01 2.3179808748e+01 4.9935713700e-03 0.0000e+00 0.0000e+00
       11 -1    0    0    0    0 -1.7099326848e-18 +1.8673226416e-18 +8.8817481075e-16 5.1100000000e-04 5.1099893000e-04 0.0000e+00 1.0000e+00
       50  1    1    2    0    0 -2.0672942990e-02 +2.4855383876e-02 +2.2196384770e+01 2.2196408875e+01 4.9935713700e-03 0.0000e+00 0.0000e+00
       11  1    1    2    0    0 -2.3953126286e-02 +2.3878271141e-02 +9.8332925357e-01 9.8391087307e-01 5.1099893000e-04 0.0000e+00 1.0000e+00
<vert_displacement>
461.54275321147190
</vert_displacement>
</event>
<event>
 4   1200 +8.6263000e+09 1.40451000e-02 7.81665300e-03            nan
       50 -1    0    0    0    0 -1.9775984043e-02 -3.0728196563e-02 +1.4240380654e+01 1.4240428414e+01 4.9935713700e-03 0.0000e+00 0.0000e+00
       11 -1    0    0    0    0 -4.8180946375e-20 -7.4864218519e-20 +3.4694355293e-17 5.1100000000e-04 5.1099893000e-04 0.0000e+00 1.0000e+00
       50  1    1    2    0    0 -3.0923464278e-02 -2.3823686113e-02 +1.4069704948e+01 1.4069759987e+01 4.9935713700e-03 0.0000e+00 0.0000e+00
       11  1    1    2    0    0 +1.1147480235e-02 -6.9045104499e-03 +1.7067570574e-01 1.7117942700e-01 5.1099893000e-04 0.0000e+00 1.0000e+00
<vert_displacement>
498.20357674880069
</vert_displacement>
</event>
<event>
 4   1200 +8.6263000e+09 3.05957200e-02 7.81665300e-03            nan
       50 -1    0    0    0    0 -3.8528740126e-03 +1.7437416220e-02 +9.0216515751e+00 9.0216706317e+00 4.9935713700e-03 0.0000e+00 0.0000e+00
       11 -1    0    0    0    0 -2.2225391382e-19 +1.0058813211e-18 +5.2041602323e-16 5.1100000000e-04 5.1099893000e-04 0.0000e+00 1.0000e+00
       50  1    1    2    0    0 -3.2802109709e-02 +2.2433606201e-02 +8.0181031087e+00 8.0182031430e+00 4.9935713700e-03 0.0000e+00 0.0000e+00
       11  1    1    2    0    0 +2.8949235696e-02 -4.9961899806e-03 +1.0035484664e+00 1.0039784887e+00 5.1099893000e-04 0.0000e+00 1.0000e+00
<vert_displacement>
380.07950739307023
</vert_displacement>
</event>
<event>
 4   1200 +8.6263000e+09 9.54656500e-03 7.81665300e-03            nan
       50 -1    0    0    0    0 -3.7659844470e-02 +2.1954834196e-03 +1.3690925723e+01 1.3690978605e+01 4.9935713700e-03 0.0000e+00 0.0000e+00
       11 -1    0    0    0    0 -3.3401991029e-18 +1.9472602322e-19 +1.2143018236e-15 5.1100000000e-04 5.1099893000e-04 0.0000e+00 1.0000e+00
       50  1    1    2    0    0 -3.4680187280e-02 -5.4541696644e-03 +1.3625846413e+01 1.3625892553e+01 4.9935713700e-03 0.0000e+00 0.0000e+00
       11  1    1    2    0    0 -2.9796571905e-03 +7.6496530840e-03 +6.5079309307e-02 6.5597051528e-02 5.1099893000e-04 0.0000e+00 1.0000e+00
<vert_displacement>
354.31728157314058
</vert_displacement>
</event>
<event>
 4   1200 +8.6263000e+09 1.96144200e-02 7.81665300e-03            nan
       50 -1    0    0    0    0 +1.5123733861e-02 +9.1447298678e-03 +5.7987278003e+00 5.7987568832e+00 4.9935713700e-03 0.0000e+00 0.0000e+00
       11 -1    0    0    0    0 +2.8593783225e-18 +1.7289541451e-18 +1.0963401447e-15 5.1100000000e-04 5.1099893000e-04 0.0000e+00 1.0000e+00
       50  1    1    2    0    0 +8.5536767494e-03 +2.6677168461e-02 +5.4220741800e+00 5.4221488531e+00 4.9935713700e-03 0.0000e+00 0.0000e+00
       11  1    1    2    0    0 +6.5700571115e-03 -1.7532438594e-02 +3.7665362031e-01 3.7711903010e-01 5.1099893000e-04 0.0000e+00 1.0000e+00
<vert_displacement>
222.55422724327843
</vert_displacement>
</event>
<event>
 4   1200 +8.6263000e+09 6.71331100e-03 7.81665300e-03            nan
       50 -1    0    0    0    0 -9.1993354683e-03 +2.0061371111e-03 +4.5627928347e+00 4.5628052819e+00 4.9935713700e-03 0.0000e+00 0.0000e+00
       11 -1    0    0    0    0 +2.0984870190e-19 -4.5762573836e-20 -1.0408318695e-16 5.1100000000e-04 5.1099893000e-04 0.0000e+00 1.0000e+00
       50  1    1    2    0    0 -4.6795175222e-03 +2.2484365622e-03 +4.5430139134e+00 4.5430196243e+00 4.9935713700e-03 0.0000e+00 0.0000e+00
       11  1    1    2    0    0 -4.5198179461e-03 -2.4229945104e-04 +1.9778921253e-02 2.0296657585e-02 5.1099893000e-04 0.0000e+00 1.0000e+00
<vert_displacement>
184.10021520545476
</vert_displacement>
</event>
<event>
 4   1200 +8.6263000e+09 8.95996800e-03 7.81665300e-03            nan
       50 -1    0    0    0    0 +4.7385547045e-02 -3.0990618893e-02 +2.0510289567e+01 2.0510368326e+01 4.9935713700e-03 0.0000e+00 0.0000e+00
       11 -1    0    0    0    0 +4.5528258589e-18 -2.9775933777e-18 +1.9706383599e-15 5.1100000000e-04 5.1099893000e-04 0.0000e+00 1.0000e+00
       50  1    1    2    0    0 +4.5485969569e-02 -3.8133370709e-02 +2.0455983808e+01 2.0456070532e+01 4.9935713700e-03 0.0000e+00 0.0000e+00
       11  1    1    2    0    0 +1.8995774763e-03 +7.1427518155e-03 +5.4305758861e-02 5.4808793669e-02 5.1099893000e-04 0.0000e+00 1.0000e+00
<vert_displacement>
45.861698346206353
</vert_displacement>
</event>
<event>
 4   1200 +8.6263000e+09 1.99989100e-02 7.81665300e-03            nan
       50 -1    0    0    0    0 -4.2982403023e-03 +9.9318985412e-03 +5.2212962758e+00 5.2213098791e+00 4.9935713700e-03 0.0000e+00 0.0000e+00
       11 -1    0    0    0    0 +3.9414022449e-19 -9.1073566051e-19 -4.7878265094e-16 5.1100000000e-04 5.1099893000e-04 0.0000e+00 1.0000e+00
       50  1    1    2    0    0 -2.0017663260e-02 +2.0017068143e-02 +4.8238985189e+00 4.8239841673e+00 4.9935713700e-03 0.0000e+00 0.0000e+00
       11  1    1    2    0    0 +1.5719422958e-02 -1.0085169602e-02 +3.9739775696e-01 3.9783671181e-01 5.1099893000e-04 0.0000e+00 1.0000e+00
<vert_displacement>
208.27384326752036
</vert_displacement>
</event>
<event>
 4   1200 +8.6263000e+09 9.63496900e-03 7.81665300e-03            nan
       50 -1    0    0    0    0 +3.3578196893e-02 -4.3181206495e-02 +1.9227584479e+01 1.9227662935e+01 4.9935713700e-03 0.0000e+00 0.0000e+00
       11 -1    0    0    0    0 -7.5129902012e-19 +9.6616260337e-19 -4.3020968113e-16 5.1100000000e-04 5.1099893000e-04 0.0000e+00 1.0000e+00
       50  1    1    2    0    0 +2.8258809964e-02 -4.9421010126e-02 +1.9160910965e+01 1.9160996189e+01 4.9935713700e-03 0.0000e+00 0.0000e+00
       11  1    1    2    0    0 +5.3193869292e-03 +6.2398036310e-03 +6.6673513718e-02 6.7177746152e-02 5.1099893000e-04 0.0000e+00 1.0000e+00
<vert_displacement>
260.40379281125507
</vert_displacement>
</event>
<event>
 4   1200 +8.6263000e+09 2.44625200e-02 7.81665300e-03            nan
       50 -1    0    0    0    0 -7.7831288581e-02 -2.9659591957e-02 +2.4658309266e+01 2.4658450442e+01 4.9935713700e-03 0.0000e+00 0.0000e+00
       11 -1    0    0    0    0 +3.8985104025e-18 +1.4856265377e-18 -1.2351160688e-15 5.1100000000e-04 5.1099893000e-04 0.0000e+00 1.0000e+00
       50  1    1    2    0    0 -5.5650524459e-02 -4.1564163353e-02 +2.4083815985e+01 2.4083916664e+01 4.9935713700e-03 0.0000e+00 0.0000e+00
       11  1    1    2    0    0 -2.2180764122e-02 +1.1904571396e-02 +5.7449328193e-01 5.7504477844e-01 5.1099893000e-04 0.0000e+00 1.0000e+00
<vert_displacement>
494.61727379069919
</vert_displacement>
</event>
<event>
 4   1200 +8.6263000e+09 5.27258600e-03 7.81665300e-03            nan
       50 -1    0    0    0    0 +5.8178463708e-02 +5.7109481924e-02 +3.3508663267e+01 3.3508762810e+01 4.9935713700e-03 0.0000e+00 0.0000e+00
       11 -1    0    0    0    0 +1.9516822933e-18 +1.9158217241e-18 +1.1240974856e-15 5.1100000000e-04 5.1099893000e-04 0.0000e+00 1.0000e+00
       50  1    1    2    0    0 +5.7748486030e-02 +5.8742900271e-02 +3.3505858197e+01 3.3505959829e+01 4.9935713700e-03 0.0000e+00 0.0000e+00
       11  1    1    2    0    0 +4.2997767806e-04 -1.6334183470e-03 +2.8050698851e-03 3.3139814826e-03 5.1099893000e-04 0.0000e+00 1.0000e+00
<vert_displacement>
257.69908998212293
</vert_displacement>
</event>
<event>
 4   1200 +8.6263000e+09 2.96953900e-02 7.81665300e-03            nan
       50 -1    0    0    0    0 -6.7577858578e-02 -2.5968587280e-02 +2.2461615351e+01 2.2461732574e+01 4.9935713700e-03 0.0000e+00 0.0000e+00
       11 -1    0    0    0    0 +1.7953531271e-18 +6.8991213040e-19 -5.9674177619e-16 5.1100000000e-04 5.1099893000e-04 0.0000e+00 1.0000e+00
       50  1    1    2    0    0 -8.5820211744e-02 -4.4307838910e-03 +2.1589209065e+01 2.1589380671e+01 4.9935713700e-03 0.0000e+00 0.0000e+00
       11  1    1    2    0    0 +1.8242353166e-02 -2.1537803389e-02 +8.7240628508e-01 8.7286290320e-01 5.1099893000e-04 0.0000e+00 1.0000e+00
<vert_displacement>
157.93901760551896
</vert_displacement>
</event>
<event>
 4   1200 +8.6263000e+09 1.17114900e-02 7.81665300e-03            nan
       50 -1    0    0    0    0 -6.6526692150e-02 +4.3114174606e-02 +2.4791537809e+01 2.4791665062e+01 4.9935713700e-03 0.0000e+00 0.0000e+00
       11 -1    0    0    0    0 +6.2935717866e-18 -4.0786959960e-18 -2.3453341488e-15 5.1100000000e-04 5.1099893000e-04 0.0000e+00 1.0000e+00
       50  1    1    2    0    0 -5.9594453843e-02 +5.1179681646e-02 +2.4681240784e+01 2.4681366300e+01 4.9935713700e-03 0.0000e+00 0.0000e+00
       11  1    1    2    0    0 -6.9322383072e-03 -8.0655070405e-03 +1.1029702584e-01 1.1080976203e-01 5.1099893000e-04 0.0000e+00 1.0000e+00
<vert_displacement>
424.52692471134162
</vert_displacement>
</event>
<event>
 4   1200 +8.6263000e+09 2.37967200e-02 7.81665300e-03            nan
       50 -1    0    0    0    0 -1.7781223589e-02 +6.2494440931e-03 +1.2309534555e+01 1.2309549997e+01 4.9935713700e-03 0.0000e+00 0.0000e+00
       11 -1    0    0    0    0 -1.1727234542e-18 +4.1216902914e-19 +8.1184963513e-16 5.1100000000e-04 5.1099893000e-04 0.0000e+00 1.0000e+00
       50  1    1    2    0    0 -2.6488321604e-02 +2.7203066180e-02 +1.1754742211e+01 1.1754804593e+01 4.9935713700e-03 0.0000e+00 0.0000e+00
       11  1    1    2    0    0 +8.7070980147e-03 -2.0953622087e-02 +5.5479234420e-01 5.5525640396e-01 5.1099893000e-04 0.0000e+00 1.0000e+00
<vert_displacement>
303.35715209078404
</vert_displacement>
</event>
<event>
 4   1200 +8.6263000e+09 1.29876800e-02 7.81665300e-03            nan
       50 -1    0    0    0    0 +3.4298994772e-02 +3.8296506932e-03 +1.0975049298e+01 1.0975104697e+01 4.9935713700e-03 0.0000e+00 0.0000e+00
       11 -1    0    0    0    0 -2.3853696946e-19 -2.6633820511e-20 -7.6327455562e-17 5.1100000000e-04 5.1099893000e-04 0.0000e+00 1.0000e+00
       50  1    1    2    0    0 +2.1874018108e-02 +3.2984537384e-03 +1.0832576582e+01 1.0832600320e+01 4.9935713700e-03 0.0000e+00 0.0000e+00
       11  1    1    2    0    0 +1.2424976664e-02 +5.3119695484e-04 +1.4247271652e-01 1.4301537780e-01 5.1099893000e-04 0.0000e+00 1.0000e+00
<vert_displacement>
271.25763898303381
</vert_displacement>
</event>
<event>
 4   1200 +8.6263000e+09 3.39121600e-02 7.81665300e-03            nan
       50 -1    0    0    0    0 +2.4670094536e-02 +5.4747944456e-03 +1.2237720024e+01 1.2237747133e+01 4.9935713700e-03 0.0000e+00 0.0000e+00
       11 -1    0    0    0    0 +9.0922837049e-19 +2.0177622041e-19 +4.5102714216e-16 5.1100000000e-04 5.1099893000e-04 0.0000e+00 1.0000e+00
       50  1    1    2    0    0 +5.4530588051e-02 -4.0204684489e-03 +1.1014174759e+01 1.1014311613e+01 4.9935713700e-03 0.0000e+00 0.0000e+00
       11  1    1    2    0    0 -2.9860493515e-02 +9.4952628946e-03 +1.2235452645e+00 1.2239465203e+00 5.1099893000e-04 0.0000e+00 1.0000e+00
<vert_displacement>
472.61803776636947
</vert_displacement>
</event>
<event>
 4   1200 +8.6263000e+09 1.27390900e-02 7.81665300e-03            nan
       50 -1    0    0    0    0 -4.8504584604e-03 +5.3678836768e-03 +2.8679527167e+00 2.8679661891e+00 4.9935713700e-03 0.0000e+00 0.0000e+00
       11 -1    0    0    0    0 -3.3446026384e-19 +3.7013898902e-19 +1.9775784704e-16 5.1100000000e-04 5.1099893000e-04 0.0000e+00 1.0000e+00
       50  1    1    2    0    0 -1.6186248272e-02 +3.2681050674e-03 +2.7264855270e+00 2.7265401042e+00 4.9935713700e-03 0.0000e+00 0.0000e+00
       11  1    1    2    0    0 +1.1335789812e-02 +2.0997786094e-03 +1.4146718962e-01 1.4193708486e-01 5.1099893000e-04 0.0000e+00 1.0000e+00
<vert_displacement>
309.08176297548016
</vert_displacement>
</event>
<event>
 4   1200 +8.6263000e+09 1.04417800e-02 7.81665300e-03            nan
       50 -1    0    0    0    0 +1.2993159221e-03 +2.4992020958e-02 +1.0470727380e+01 1.0470758477e+01 4.9935713700e-03 0.0000e+00 0.0000e+00
       11 -1    0    0    0    0 -1.3001811404e-19 -2.5008663219e-18 -1.0477699868e-15 5.1100000000e-04 5.1099893000e-04 0.0000e+00 1.0000e+00
       50  1    1    2    0    0 +1.0373429741e-02 +2.3541653863e-02 +1.0387782192e+01 1.0387815248e+01 4.9935713700e-03 0.0000e+00 0.0000e+00
       11  1    1    2    0    0 -9.0741138189e-03 +1.4503670948e-03 +8.2945187966e-02 8.3454229569e-02 5.1099893000e-04 0.0000e+00 1.0000e+00
<vert_displacement>
418.72886211529033
</vert_displacement>
</event>
<event>
 4   1200 +8.6263000e+09 2.67562000e-02 7.81665300e-03            nan
       50 -1    0    0    0    0 -5.7112889634e-03 +6.1355252163e-03 +2.2639246346e+01 2.2639248448e+01 4.9935713700e-03 0.0000e+00 0.0000e+00
       11 -1    0    0    0    0 -3.5010021845e-19 +3.7610576742e-19 +1.3877786857e-15 5.1100000000e-04 5.1099893000e-04 0.0000e+00 1.0000e+00
       50  1    1    2    0    0 -2.8119916085e-02 +1.9396131852e-02 +2.1941617109e+01 2.1941644269e+01 4.9935713700e-03 0.0000e+00 0.0000e+00
       11  1    1    2    0    0 +2.2408627122e-02 -1.3260606635e-02 +6.9762923678e-01 6.9811517917e-01 5.1099893000e-04 0.0000e+00 1.0000e+00
<vert_displacement>
63.892085759373202
</vert_displacement>
</event>
<event>
 4   1200 +8.6263000e+09 4.63137800e-02 7.81665300e-03            nan
       50 -1    0    0    0    0 -1.6563008178e-02 -2.0203425852e-02 +1.3607373347e+01 1.3607399342e+01 4.9935713700e-03 0.0000e+00 0.0000e+00
       11 -1    0    0    0    0 +2.7872010837e-19 +3.3998057492e-19 -2.2898307681e-16 5.1100000000e-04 5.1099893000e-04 0.0000e+00 1.0000e+00
       50  1    1    2    0    0 -5.0933186482e-02 -4.3153980228e-02 +1.1052190431e+01 1.1052393167e+01 4.9935713700e-03 0.0000e+00 0.0000e+00
       11  1    1    2    0    0 +3.4370178304e-02 +2.2950554377e-02 +2.5551829157e+00 2.5555171748e+00 5.1099893000e-04 0.0000e+00 1.0000e+00
<vert_displacement>
8.1867642710196762
</vert_displacement>
</event>
<event>
 4   1200 +8.6263000e+09 1.82450900e-02 7.81665300e-03            nan
       50 -1    0    0    0    0 -4.0151827491e-02 -9.2551309388e-03 +1.3759598647e+01 1.3759661249e+01 4.9935713700e-03 0.0000e+00 0.0000e+00
       11 -1    0    0    0    0 +6.0744799813e-20 +1.4001880145e-20 -2.0816588373e-17 5.1100000000e-04 5.1099893000e-04 0.0000e+00 1.0000e+00
       50  1    1    2    0    0 -2.5956081555e-02 -2.0500147428e-02 +1.3451383653e+01 1.3451425244e+01 4.9935713700e-03 0.0000e+00 0.0000e+00
       11  1    1    2    0    0 -1.4195745936e-02 +1.1245016489e-02 +3.0821499404e-01 3.0874700528e-01 5.1099893000e-04 0.0000e+00 1.0000e+00
<vert_displacement>
67.087034684359338
</vert_displacement>
</event>
<event>
 4   1200 +8.6263000e+09 2.24867800e-02 7.81665300e-03            nan
       50 -1    0    0    0    0 +8.4252554644e-03 -3.4699451662e-03 +2.8073847865e+00 2.8074040145e+00 4.9935713700e-03 0.0000e+00 0.0000e+00
       11 -1    0    0    0    0 +9.9956337105e-19 -4.1167061371e-19 +3.3306515308e-16 5.1100000000e-04 5.1099893000e-04 0.0000e+00 1.0000e+00
       50  1    1    2    0    0 +5.7154449871e-03 -2.4635195888e-02 +2.2077276273e+00 2.2078781152e+00 4.9935713700e-03 0.0000e+00 0.0000e+00
       11  1    1    2    0    0 +2.7098104773e-03 +2.1165250722e-02 +5.9965715914e-01 6.0003689932e-01 5.1099893000e-04 0.0000e+00 1.0000e+00
<vert_displacement>
324.49246493997634
</vert_displacement>
</event>
<event>
 4   1200 +8.6263000e+09 1.86848000e-02 7.81665300e-03            nan
       50 -1    0    0    0    0 +3.2358242717e-02 -1.3241557575e-02 +1.0174170377e+01 1.0174231676e+01 4.9935713700e-03 0.0000e+00 0.0000e+00
       11 -1    0    0    0    0 -1.1696326277e-18 +4.7863408148e-19 -3.6775920548e-16 5.1100000000e-04 5.1099893000e-04 0.0000e+00 1.0000e+00
       50  1    1    2    0    0 +1.7272144089e-02 -2.4082776687e-02 +9.8463917448e+00 9.8464376114e+00 4.9935713700e-03 0.0000e+00 0.0000e+00
       11  1    1    2    0    0 +1.5086098628e-02 +1.0841219112e-02 +3.2777863221e-01 3.2830506432e-01 5.1099893000e-04 0.0000e+00 1.0000e+00
<vert_displacement>
425.20815856664910
</vert_displacement>
</event>
<event>
 4   1200 +8.6263000e+09 5.23889900e-03 7.81665300e-03            nan
       50 -1    0    0    0    0 +1.8152097349e-02 +1.4379424182e-02 +6.8103738929e+00 6.8104150948e+00 4.9935713700e-03 0.0000e+00 0.0000e+00
       11 -1    0    0    0    0 -1.0541889232e-18 -8.3508970907e-19 -3.9551466603e-16 5.1100000000e-04 5.1099893000e-04 0.0000e+00 1.0000e+00
       50  1    1    2    0    0 +1.6646721887e-02 +1.3860619976e-02 +6.8079216449e+00 6.8079579383e+00 4.9935713700e-03 0.0000e+00 0.0000e+00
       11  1    1    2    0    0 +1.5053754623e-03 +5.1880420528e-04 +2.4522480100e-03 2.9681565482e-03 5.1099893000e-04 0.0000e+00 1.0000e+00
<vert_displacement>
195.30850308422580
</vert_displacement>
</event>
<event>
 4   1200 +8.6263000e+09 1.11743100e-02 7.81665300e-03            nan
       50 -1    0    0    0    0 -3.2281745731e-03 -4.6732484677e-03 +3.0116769016e+00 3.0116863973e+00 4.9935713700e-03 0.0000e+00 0.0000e+00
       11 -1    0    0    0    0 -2.3056840911e-19 -3.3378103946e-19 +2.1510532848e-16 5.1100000000e-04 5.1099893000e-04 0.0000e+00 1.0000e+00
       50  1    1    2    0    0 -7.3569202632e-03 -1.3570168785e-02 +2.9104340474e+00 2.9104792653e+00 4.9935713700e-03 0.0000e+00 0.0000e+00
       11  1    1    2    0    0 +4.1287456901e-03 +8.8969203176e-03 +1.0124285421e-01 1.0171813201e-01 5.1099893000e-04 0.0000e+00 1.0000e+00
<vert_displacement>
35.584475797412061
</vert_displacement>
</event>
<event>
 4   1200 +8.6263000e+09 1.03954500e-02 7.81665300e-03            nan
       50 -1    0    0    0    0 +4.9326324210e-03 -4.2313518483e-03 +6.7741836071e+00 6.7741885649e+00 4.9935713700e-03 0.0000e+00 0.0000e+00
       11 -1    0    0    0    0 -1.5157692471e-19 +1.3002698068e-19 -2.0816672132e-16 5.1100000000e-04 5.1099893000e-04 0.0000e+00 1.0000e+00
       50  1    1    2    0    0 +1.0252133759e-02 +3.1815373554e-03 +6.6918333785e+00 6.6918438513e+00 4.9935713700e-03 0.0000e+00 0.0000e+00
       11  1    1    2    0    0 -5.3195013379e-03 -7.4128892037e-03 +8.2350228543e-02 8.2855713634e-02 5.1099893000e-04 0.0000e+00 1.0000e+00
<vert_displacement>
294.03905690632416
</vert_displacement>
</event>
<event>
 4   1200 +8.6263000e+09 1.74374200e-02 7.81665300e-03            nan
       50 -1    0    0    0    0 -2.4137535414e-02 -1.7648398878e-02 +7.5892302609e+00 7.5892908085e+00 4.9935713700e-03 0.0000e+00 0.0000e+00
       11 -1    0    0    0    0 +6.1793116893e-19 +4.5180651468e-19 -1.9428752132e-16 5.1100000000e-04 5.1099893000e-04 0.0000e+00 1.0000e+00
       50  1    1    2    0    0 -3.9941320410e-02 -1.6836735368e-02 +7.3053968334e+00 7.3055271278e+00 4.9935713700e-03 0.0000e+00 0.0000e+00
       11  1    1    2    0    0 +1.5803784996e-02 -8.1166350940e-04 +2.8383342751e-01 2.8427468074e-01 5.1099893000e-04 0.0000e+00 1.0000e+00
<vert_displacement>
191.75650000751054
</vert_displacement>
</event>
<event>
 4   1200 +8.6263000e+09 1.14053500e-02 7.81665300e-03            nan
       50 -1    0    0    0    0 +4.3869766378e-02 -4.7237424571e-02 +1.9010757611e+01 1.9010867571e+01 4.9935713700e-03 0.0000e+00 0.0000e+00
       11 -1    0    0    0    0 -1.9535002803e-18 +2.1034605324e-18 -8.4654018900e-16 5.1100000000e-04 5.1099893000e-04 0.0000e+00 1.0000e+00
       50  1    1    2    0    0 +5.3569998119e-02 -4.9502814150e-02 +1.8907279692e+01 1.8907421044e+01 4.9935713700e-03 0.0000e+00 0.0000e+00
       11  1    1    2    0    0 -9.7002317412e-03 +2.2653895792e-03 +1.0347791875e-01 1.0395752630e-01 5.1099893000e-04 0.0000e+00 1.0000e+00
<vert_displacement>
9.1148626721825750
</vert_displacement>
</event>
<event>
 4   1200 +8.6263000e+09 8.26368800e-03 7.81665300e-03            nan
       50 -1    0    0    0    0 -1.2515265838e-02 +9.7054545807e-03 +5.4462968581e+00 5.4463221746e+00 4.9935713700e-03 0.0000e+00 0.0000e+00
       11 -1    0    0    0    0 +1.6263999495e-18 -1.2612557371e-18 -7.0776418572e-16 5.1100000000e-04 5.1099893000e-04 0.0000e+00 1.0000e+00
       50  1    1    2    0    0 -1.4760812199e-02 +1.5782227924e-02 +5.4035199155e+00 5.4035654315e+00 4.9935713700e-03 0.0000e+00 0.0000e+00
       11  1    1    2    0    0 +2.2455463613e-03 -6.0767733436e-03 +4.2776942589e-02 4.3267743065e-02 5.1099893000e-04 0.0000e+00 1.0000e+00
<vert_displacement>
362.79915184545888
</vert_displacement>
</event>
<event>
 4   1200 +8.6263000e+09 9.92567400e-03 7.81665300e-03            nan
       50 -1    0    0    0    0 -8.5357587414e-03 +2.2581544258e-02 +9.6202207434e+00 9.6202523290e+00 4.9935713700e-03 0.0000e+00 0.0000e+00
       11 -1    0    0    0    0 -1.6623012752e-19 +4.3976559030e-19 +1.8734954553e-16 5.1100000000e-04 5.1099893000e-04 0.0000e+00 1.0000e+00
       50  1    1    2    0    0 -6.0270776746e-03 +1.4188827389e-02 +9.5476908223e+00 9.5477045735e+00 4.9935713700e-03 0.0000e+00 0.0000e+00
       11  1    1    2    0    0 -2.5086810668e-03 +8.3927168689e-03 +7.2529921137e-02 7.3058755514e-02 5.1099893000e-04 0.0000e+00 1.0000e+00
<vert_displacement>
290.48909810916939
</vert_displacement>
</event>
<event>
 4   1200 +8.6263000e+09 1.32422900e-02 7.81665300e-03            nan
       50 -1    0    0    0    0 -2.2710112462e-02 +2.7021860065e-02 +1.4444305469e+01 1.4444349461e+01 4.9935713700e-03 0.0000e+00 0.0000e+00
       11 -1    0    0    0    0 -3.0874363035e-18 +3.6736177283e-18 +1.9637011115e-15 5.1100000000e-04 5.1099893000e-04 0.0000e+00 1.0000e+00
       50  1    1    2    0    0 -1.2017377788e-02 +2.0337927374e-02 +1.4295610753e+01 1.4295631143e+01 4.9935713700e-03 0.0000e+00 0.0000e+00
       11  1    1    2    0    0 -1.0692734674e-02 +6.6839326910e-03 +1.4869471587e-01 1.4922931742e-01 5.1099893000e-04 0.0000e+00 1.0000e+00
<vert_displacement>
3.8083523602334672
</vert_displacement>
</event>
<event>
 4   1200 +8.6263000e+09 4.30170900e-02 7.81665300e-03            nan
       50 -1    0    0    0    0 +1.1783877062e-02 -1.5883825882e-02 +7.1885314851e+00 7.1885604264e+00 4.9935713700e-03 0.0000e+00 0.0000e+00
       11 -1    0    0    0    0 +2.2749225879e-20 -3.0664334063e-20 +1.3877735284e-17 5.1100000000e-04 5.1099893000e-04 0.0000e+00 1.0000e+00
       50  1    1    2    0    0 -3.5602338041e-02 -1.8837109791e-02 +3.4216707399e+00 3.4219114470e+00 4.9935713700e-03 0.0000e+00 0.0000e+00
       11  1    1    2    0    0 +4.7386215103e-02 +2.9532839092e-03 +3.7668607452e+00 3.7671599794e+00 5.1099893000e-04 0.0000e+00 1.0000e+00
<vert_displacement>
356.09213179141523
</vert_displacement>
</event>
<event>
 4   1200 +8.6263000e+09 3.45286600e-02 7.81665300e-03            nan
       50 -1    0    0    0    0 +2.7063947868e-03 -7.6864640981e-02 +3.2216009817e+01 3.2216102014e+01 4.9935713700e-03 0.0000e+00 0.0000e+00
       11 -1    0    0    0    0 -1.2824223834e-20 +3.6422230995e-19 -1.5265523085e-16 5.1100000000e-04 5.1099893000e-04 0.0000e+00 1.0000e+00
       50  1    1    2    0    0 +3.3981537327e-02 -8.7559910364e-02 +3.1030110611e+01 3.1030253156e+01 4.9935713700e-03 0.0000e+00 0.0000e+00
       11  1    1    2    0    0 -3.1275142540e-02 +1.0695269384e-02 +1.1858992062e+00 1.1863598576e+00 5.1099893000e-04 0.0000e+00 1.0000e+00
<vert_displacement>
265.49102029949654
</vert_displacement>
</event>
<event>
 4   1200 +8.6263000e+09 2.46835000e-02 7.81665300e-03            nan
       50 -1    0    0    0    0 -2.1629875115e-03 +1.8576021761e-02 +7.6098579710e+00 7.6098825892e+00 4.9935713700e-03 0.0000e+00 0.0000e+00
       11 -1    0    0    0    0 +3.0767413958e-19 -2.6423460523e-18 -1.0824641802e-15 5.1100000000e-04 5.1099893000e-04 0.0000e+00 1.0000e+00
       50  1    1    2    0    0 +4.7550753901e-03 -6.1587576539e-03 +6.9869609104e+00 6.9869670273e+00 4.9935713700e-03 0.0000e+00 0.0000e+00
       11  1    1    2    0    0 -6.9180629016e-03 +2.4734779415e-02 +6.2289706058e-01 6.2342656191e-01 5.1099893000e-04 0.0000e+00 1.0000e+00
<vert_displacement>
492.87110389569818
</vert_displacement>
</event>
<event>
 4   1200 +8.6263000e+09 2.24576800e-02 7.81665300e-03            nan
       50 -1    0    0    0    0 +1.5854488290e-03 -9.0092040645e-03 +4.6835015204e+00 4.6835131159e+00 4.9935713700e-03 0.0000e+00 0.0000e+00
       11 -1    0    0    0    0 -1.7617011838e-19 +1.0010745964e-18 -5.2041605014e-16 5.1100000000e-04 5.1099893000e-04 0.0000e+00 1.0000e+00
       50  1    1    2    0    0 -1.9352836493e-02 -1.4953187714e-02 +4.1542357677e+00 4.1543107586e+00 4.9935713700e-03 0.0000e+00 0.0000e+00
       11  1    1    2    0    0 +2.0938285322e-02 +5.9439836491e-03 +5.2926575277e-01 5.2971335731e-01 5.1099893000e-04 0.0000e+00 1.0000e+00
<vert_displacement>
82.136526910383097
</vert_displacement>
</event>
<event>
 4   1200 +8.6263000e+09 7.62015400e-03 7.81665300e-03            nan
       50 -1    0    0    0    0 -1.8754642486e-02 -9.9524669985e-03 +7.8137344173e+00 7.8137648587e+00 4.9935713700e-03 0.0000e+00 0.0000e+00
       11 -1    0    0    0    0 +9.9928654119e-20 +5.3028823828e-20 -4.1633209727e-17 5.1100000000e-04 5.1099893000e-04 0.0000e+00 1.0000e+00
       50  1    1    2    0    0 -1.8952997423e-02 -1.5660302145e-02 +7.7811705658e+00 7.7812110093e+00 4.9935713700e-03 0.0000e+00 0.0000e+00
       11  1    1    2    0    0 +1.9835493682e-04 +5.7078351464e-03 +3.2563851469e-02 3.3064849450e-02 5.1099893000e-04 0.0000e+00 1.0000e+00
<vert_displacement>
345.00294137493529
</vert_displacement>
</event>
<event>
 4   1200 +8.6263000e+09 2.61834700e-02 7.81665300e-03            nan
       50 -1    0    0    0    0 -3.2507899339e-02 +3.2150472578e-02 +2.1571484251e+01 2.1571533282e+01 4.9935713700e-03 0.0000e+00 0.0000e+00
       11 -1    0    0    0    0 +5.6466635232e-19 -5.5845780396e-19 -3.7469942917e-16 5.1100000000e-04 5.1099893000e-04 0.0000e+00 1.0000e+00
       50  1    1    2    0    0 -5.7179276942e-02 +3.2316357366e-02 +2.0904360467e+01 2.0904464243e+01 4.9935713700e-03 0.0000e+00 0.0000e+00
       11  1    1    2    0    0 +2.4671377603e-02 -1.6588478747e-04 +6.6712378358e-01 6.6758003874e-01 5.1099893000e-04 0.0000e+00 1.0000e+00
<vert_displacement>
384.57333996305374
</vert_displacement>
</event>
<event>
 4   1200 +8.6263000e+09 1.52935000e-02 7.81665300e-03            nan
       50 -1    0    0    0    0 -3.1092655344e-02 -2.2302720209e-02 +1.1580629803e+01 1.1580694095e+01 4.9935713700e-03 0.0000e+00 0.0000e+00
       11 -1    0    0    0    0 +5.7753087181e-19 +4.1426212409e-19 -2.1510453682e-16 5.1100000000e-04 5.1099893000e-04 0.0000e+00 1.0000e+00
       50  1    1    2    0    0 -2.9009336883e-02 -7.5270625344e-03 +1.1372444919e+01 1.1372485505e+01 4.9935713700e-03 0.0000e+00 0.0000e+00
       11  1    1    2    0    0 -2.0833184602e-03 -1.4775657675e-02 +2.0818488358e-01 2.0871958975e-01 5.1099893000e-04 0.0000e+00 1.0000e+00
<vert_displacement>
52.960226698101586
</vert_displacement>
</event>
<event>
 4   1200 +8.6263000e+09 2.11162800e-02 7.81665300e-03            nan
       50 -1    0    0    0    0 -2.2639257931e-02 -3.6455323283e-02 +2.2364429804e+01 2.2364471533e+01 4.9935713700e-03 0.0000e+00 0.0000e+00
       11 -1    0    0    0    0 +1.5453130988e-19 +2.4883716933e-19 -1.5265538486e-16 5.1100000000e-04 5.1099893000e-04 0.0000e+00 1.0000e+00
       50  1    1    2    0    0 -4.2049992074e-02 -3.0526340979e-02 +2.1944621525e+01 2.1944683613e+01 4.9935713700e-03 0.0000e+00 0.0000e+00
       11  1    1    2    0    0 +1.9410734144e-02 -5.9289823041e-03 +4.1980827870e-01 4.2029891912e-01 5.1099893000e-04 0.0000e+00 1.0000e+00
<vert_displacement>
393.68460530311359
</vert_displacement>
</event>
<event>
 4   1200 +8.6263000e+09 6.18027600e-03 7.81665300e-03            nan
       50 -1    0    0    0    0 -2.0244889267e-03 +2.9018839232e-03 +1.7413608199e+00 1.7413715744e+00 4.9935713700e-03 0.0000e+00 0.0000e+00
       11 -1    0    0    0    0 -1.9360975227e-19 +2.7751844926e-19 +1.6653310991e-16 5.1100000000e-04 5.1099893000e-04 0.0000e+00 1.0000e+00
       50  1    1    2    0    0 +6.8861948384e-04 +5.3257742641e-03 +1.7282818510e+00 1.7282974080e+00 4.9935713700e-03 0.0000e+00 0.0000e+00
       11  1    1    2    0    0 -2.7131084106e-03 -2.4238903409e-03 +1.3078968871e-02 1.3585166479e-02 5.1099893000e-04 0.0000e+00 1.0000e+00
<vert_displacement>
359.30609369634453
</vert_displacement>
</event>
<event>
 4   1200 +8.6263000e+09 8.10640200e-03 7.81665300e-03            nan
       50 -1    0    0    0    0 +1.0108222161e-01 -3.7784551115e-02 +2.9373894155e+01 2.9374092804e+01 4.9935713700e-03 0.0000e+00 0.0000e+00
       11 -1    0    0    0    0 -2.0535203945e-18 +7.6760626230e-19 -5.9674084874e-16 5.1100000000e-04 5.1099893000e-04 0.0000e+00 1.0000e+00
       50  1    1    2    0    0 +9.4758126285e-02 -3.6150933584e-02 +2.9333962464e+01 2.9334138214e+01 4.9935713700e-03 0.0000e+00 0.0000e+00
       11  1    1    2    0    0 +6.3240953198e-03 -1.6336175305e-03 +3.9931691266e-02 4.0465590013e-02 5.1099893000e-04 0.0000e+00 1.0000e+00
<vert_displacement>
203.57081578565200
</vert_displacement>
</event>
<event>
 4   1200 +8.6263000e+09 6.26984000e-03 7.81665300e-03            nan
       50 -1    0    0    0    0 -1.1751576927e-02 -4.1288054761e-03 +1.6436301542e+01 1.6436307020e+01 4.9935713700e-03 0.0000e+00 0.0000e+00
       11 -1    0    0    0    0 -1.3791991028e-18 -4.8456856842e-19 +1.9290119514e-15 5.1100000000e-04 5.1099893000e-04 0.0000e+00 1.0000e+00
       50  1    1    2    0    0 -8.5462333462e-03 -2.0843551588e-03 +1.6422226137e+01 1.6422229252e+01 4.9935713700e-03 0.0000e+00 0.0000e+00
       11  1    1    2    0    0 -3.2053435810e-03 -2.0444503173e-03 +1.4075405160e-02 1.4588768108e-02 5.1099893000e-04 0.0000e+00 1.0000e+00
<vert_displacement>
103.93057767676754
</vert_displacement>
</event>
<event>
 4   1200 +8.6263000e+09 4.12762200e-02 7.81665300e-03            nan
       50 -1    0    0    0    0 -3.6862750197e-02 -1.0732020486e-02 +1.4777883006e+01 1.4777933723e+01 4.9935713700e-03 0.0000e+00 0.0000e+00
       11 -1    0    0    0    0 -1.5058563454e-18 -4.3840682158e-19 +6.0368173231e-16 5.1100000000e-04 5.1099893000e-04 0.0000e+00 1.0000e+00
       50  1    1    2    0    0 -3.1983257306e-02 -5.0337145025e-02 +1.2894816948e+01 1.2894955828e+01 4.9935713700e-03 0.0000e+00 0.0000e+00
       11  1    1    2    0    0 -4.8794928915e-03 +3.9605124538e-02 +1.8830660586e+00 1.8834888950e+00 5.1099893000e-04 0.0000e+00 1.0000e+00
<vert_displacement>
246.24560430636049
</vert_displacement>
</event>
<event>
 4   1200 +8.6263000e+09 6.38604700e-03 7.81665300e-03            nan
       50 -1    0    0    0    0 -1.2977764833e-02 -4.0089427574e-02 +1.7063817168e+01 1.7063869926e+01 4.9935713700e-03 0.0000e+00 0.0000e+00
       11 -1    0    0    0    0 -5.6994951633e-19 -1.7606228923e-18 +7.4939825670e-16 5.1100000000e-04 5.1099893000e-04 0.0000e+00 1.0000e+00
       50  1    1    2    0    0 -1.2228973892e-02 -4.3964822961e-02 +1.7048289247e+01 1.7048351054e+01 4.9935713700e-03 0.0000e+00 0.0000e+00
       11  1    1    2    0    0 -7.4879094122e-04 +3.8753953874e-03 +1.5527920802e-02 1.6029872789e-02 5.1099893000e-04 0.0000e+00 1.0000e+00
<vert_displacement>
267.40388147194255
</vert_displacement>
</event>
<event>
 4   1200 +8.6263000e+09 1.51308600e-02 7.81665300e-03            nan
       50 -1    0    0    0    0 +1.9501977657e-02 +2.6518475548e-02 +1.4254980976e+01 1.4255019857e+01 4.9935713700e-03 0.0000e+00 0.0000e+00
       11 -1    0    0    0    0 +2.6770113349e-18 +3.6401569559e-18 +1.9567628638e-15 5.1100000000e-04 5.1099893000e-04 0.0000e+00 1.0000e+00
       50  1    1    2    0    0 +2.7896520635e-02 +3.7491191001e-02 +1.4052444219e+01 1.4052522808e+01 4.9935713700e-03 0.0000e+00 0.0000e+00
       11  1    1    2    0    0 -8.3945429777e-03 -1.0972715453e-02 +2.0253675697e-01 2.0300804881e-01 5.1099893000e-04 0.0000e+00 1.0000e+00
<vert_displacement>
244.23658400141824
</vert_displacement>
</event>
<event>
 4   1200 +8.6263000e+09 1.64322200e-02 7.81665300e-03            nan
       50 -1    0    0    0    0 -4.7223628628e-02 +9.3630773654e-03 +1.5306205199e+01 1.5306281726e+01 4.9935713700e-03 0.0000e+00 0.0000e+00
       11 -1    0    0    0    0 +5.2664144004e-18 -1.0441773939e-18 -1.7069594569e-15 5.1100000000e-04 5.1099893000e-04 0.0000e+00 1.0000e+00
       50  1    1    2    0    0 -6.0735524932e-02 +1.5665721561e-02 +1.5062457750e+01 1.5062589174e+01 4.9935713700e-03 0.0000e+00 0.0000e+00
       11  1    1    2    0    0 +1.3511896305e-02 -6.3026441958e-03 +2.4374744877e-01 2.4420355151e-01 5.1099893000e-04 0.0000e+00 1.0000e+00
<vert_displacement>
164.36392904855569
</vert_displacement>
</event>
<event>
 4   1200 +8.6263000e+09 2.53311000e-02 7.81665300e-03            nan
       50 -1    0    0    0    0 +2.7927009295e-02 -7.3346323329e-04 +1.6728677490e+01 1.6728701562e+01 4.9935713700e-03 0.0000e+00 0.0000e+00
       11 -1    0    0    0    0 -1.5058988960e-18 +3.9550295615e-20 -9.0205494966e-16 5.1100000000e-04 5.1099893000e-04 0.0000e+00 1.0000e+00
       50  1    1    2    0    0 +3.1916192752e-02 -2.5024039733e-02 +1.6101662863e+01 1.6101714714e+01 4.9935713700e-03 0.0000e+00 0.0000e+00
       11  1    1    2    0    0 -3.9891834573e-03 +2.4290576499e-02 +6.2701462710e-01 6.2749784813e-01 5.1099893000e-04 0.0000e+00 1.0000e+00
<vert_displacement>
430.84022875424398
</vert_displacement>
</event>
<event>
 4   1200 +8.6263000e+09 6.02693000e-03 7.81665300e-03            nan
       50 -1    0    0    0    0 -4.6791699928e-02 -3.1723550187e-02 +1.5556299872e+01 1.5556403392e+01 4.9935713700e-03 0.0000e+00 0.0000e+00
       11 -1    0    0    0    0 -2.0871319027e-19 -1.4150209068e-19 +6.9388480866e-17 5.1100000000e-04 5.1099893000e-04 0.0000e+00 1.0000e+00
       50  1    1    2    0    0 -4.7578016398e-02 -2.8427288721e-02 +1.5545152804e+01 1.5545252408e+01 4.9935713700e-03 0.0000e+00 0.0000e+00
       11  1    1    2    0    0 +7.8631646960e-04 -3.2962614661e-03 +1.1147067751e-02 1.1661984076e-02 5.1099893000e-04 0.0000e+00 1.0000e+00
<vert_displacement>
196.87939048870564
</vert_displacement>
</event>
<event>
 4   1200 +8.6263000e+09 1.81871500e-02 7.81665300e-03            nan
       50 -1    0    0    0    0 +4.6394118518e-02 +2.6593880173e-02 +2.7749950677e+01 2.7750002652e+01 4.9935713700e-03 0.0000e+00 0.0000e+00
       11 -1    0    0    0    0 -1.3921030945e-19 -7.9797664160e-20 -8.3266572240e-17 5.1100000000e-04 5.1099893000e-04 0.0000e+00 1.0000e+00
       50  1    1    2    0    0 +6.2316902278e-02 +2.0309204952e-02 +2.7447369088e+01 2.7447447798e+01 4.9935713700e-03 0.0000e+00 0.0000e+00
       11  1    1    2    0    0 -1.5922783760e-02 +6.2846752209e-03 +3.0258158928e-01 3.0306585336e-01 5.1099893000e-04 0.0000e+00 1.0000e+00
<vert_displacement>
123.88588394005076
</vert_displacement>
</event>
<event>
 4   1200 +8.6263000e+09 1.30506600e-02 7.81665300e-03            nan
       50 -1    0    0    0    0 -1.2685165482e-02 -8.2985698144e-03 +9.0587336165e+00 9.0587476756e+00 4.9935713700e-03 0.0000e+00 0.0000e+00
       11 -1    0    0    0    0 +2.9150065977e-20 +1.9069822775e-20 -2.0816652567e-17 5.1100000000e-04 5.1099893000e-04 0.0000e+00 1.0000e+00
       50  1    1    2    0    0 -2.4295867096e-02 -5.7509494726e-03 +8.9141435818e+00 8.9141799452e+00 4.9935713700e-03 0.0000e+00 0.0000e+00
       11  1    1    2    0    0 +1.1610701614e-02 -2.5476203418e-03 +1.4459003466e-01 1.4507873036e-01 5.1099893000e-04 0.0000e+00 1.0000e+00
<vert_displacement>
442.27122596117260
</vert_displacement>
</event>
<event>
 4   1200 +8.6263000e+09 2.22075900e-02 7.81665300e-03            nan
       50 -1    0    0    0    0 -5.5179192749e-02 -2.0755960116e-03 +2.3475301997e+01 2.3475367470e+01 4.9935713700e-03 0.0000e+00 0.0000e+00
       11 -1    0    0    0    0 +2.9357948582e-19 +1.1043155572e-20 -1.2489974475e-16 5.1100000000e-04 5.1099893000e-04 0.0000e+00 1.0000e+00
       50  1    1    2    0    0 -3.9956672571e-02 +1.4359694375e-02 +2.3007847034e+01 2.3007886752e+01 4.9935713700e-03 0.0000e+00 0.0000e+00
       11  1    1    2    0    0 -1.5222520178e-02 -1.6435290387e-02 +4.6745496321e-01 4.6799171749e-01 5.1099893000e-04 0.0000e+00 1.0000e+00
<vert_displacement>
290.38172824397930
</vert_displacement>
</event>
<event>
 4   1200 +8.6263000e+09 8.00066900e-03 7.81665300e-03            nan
       50 -1    0    0    0    0 +2.1457738700e-04 +1.4465032090e-02 +1.0826340818e+01 1.0826351635e+01 4.9935713700e-03 0.0000e+00 0.0000e+00
       11 -1    0    0    0    0 +7.2890006113e-21 +4.9136411449e-19 +3.6776104858e-16 5.1100000000e-04 5.1099893000e-04 0.0000e+00 1.0000e+00
       50  1    1    2    0    0 +8.0452149652e-04 +8.1907460993e-03 +1.0787977239e+01 1.0787981534e+01 4.9935713700e-03 0.0000e+00 0.0000e+00
       11  1    1    2    0    0 -5.8994410952e-04 +6.2742859911e-03 +3.8363579309e-02 3.8881101271e-02 5.1099893000e-04 0.0000e+00 1.0000e+00
<vert_displacement>
208.71894814008070
</vert_displacement>
</event>
<event>
 4   1200 +8.6263000e+09 4.05561400e-02 7.81665300e-03            nan
       50 -1    0    0    0    0 +4.7060186585e-03 -2.1171466993e-02 +1.1160899672e+01 1.1160921862e+01 4.9935713700e-03 0.0000e+00 0.0000e+00
       11 -1    0    0    0    0 +5.8515896542e-20 -2.6325169152e-19 +1.3877761606e-16 5.1100000000e-04 5.1099893000e-04 0.0000e+00 1.0000e+00
       50  1    1    2    0    0 -1.4832441089e-02 -5.3163673339e-02 +9.2468257027e+00 9.2469917751e+00 4.9935713700e-03 0.0000e+00 0.0000e+00
       11  1    1    2    0    0 +1.9538459748e-02 +3.1992206346e-02 +1.9140739697e+00 1.9144410869e+00 5.1099893000e-04 0.0000e+00 1.0000e+00
<vert_displacement>
345.46702761527655
</vert_displacement>
</event>
<event>
 4   1200 +8.6263000e+09 1.68919400e-02 7.81665300e-03            nan
       50 -1    0    0    0    0 -2.2555893281e-02 -3.0551666780e-02 +1.5930354753e+01 1.5930400800e+01 4.9935713700e-03 0.0000e+00 0.0000e+00
       11 -1    0    0    0    0 +1.2772236433e-18 +1.7299829658e-18 -9.0205364439e-16 5.1100000000e-04 5.1099893000e-04 0.0000e+00 1.0000e+00
       50  1    1    2    0    0 -7.2724956586e-03 -3.6210847999e-02 +1.5671342101e+01 1.5671386419e+01 4.9935713700e-03 0.0000e+00 0.0000e+00
       11  1    1    2    0    0 -1.5283397623e-02 +5.6591812194e-03 +2.5901265229e-01 2.5952538169e-01 5.1099893000e-04 0.0000e+00 1.0000e+00
<vert_displacement>
301.13809439892339
</vert_displacement>
</event>
<event>
 4   1200 +8.6263000e+09 2.03069400e-02 7.81665300e-03            nan
       50 -1    0    0    0    0 +5.1795071598e-02 +2.3647699315e-02 +2.2154177018e+01 2.2154250748e+01 4.9935713700e-03 0.0000e+00 0.0000e+00
       11 -1    0    0    0    0 -5.8401517216e-19 -2.6663956166e-19 -2.4979935554e-16 5.1100000000e-04 5.1099893000e-04 0.0000e+00 1.0000e+00
       50  1    1    2    0    0 +3.1301030877e-02 +2.5130030458e-02 +2.1768390559e+01 2.1768428141e+01 4.9935713700e-03 0.0000e+00 0.0000e+00
       11  1    1    2    0    0 +2.0494040720e-02 -1.4823311431e-03 +3.8578645905e-01 3.8633360728e-01 5.1099893000e-04 0.0000e+00 1.0000e+00
<vert_displacement>
154.35658709855966
</vert_displacement>
</event>
<event>
 4   1200 +8.6263000e+09 2.53026800e-02 7.81665300e-03            nan
       50 -1    0    0    0    0 +3.1678817470e-02 +2.5818072482e-03 +9.9101658909e+00 9.9102181174e+00 4.9935713700e-03 0.0000e+00 0.0000e+00
       11 -1    0    0    0    0 -1.5082903881e-18 -1.2292488695e-19 -4.7184235876e-16 5.1100000000e-04 5.1099893000e-04 0.0000e+00 1.0000e+00
       50  1    1    2    0    0 +6.2580535490e-03 -5.9225312214e-03 +9.2662144133e+00 9.2662197648e+00 4.9935713700e-03 0.0000e+00 0.0000e+00
       11  1    1    2    0    0 +2.5420763921e-02 +8.5043384696e-03 +6.4395147762e-01 6.4450935266e-01 5.1099893000e-04 0.0000e+00 1.0000e+00
<vert_displacement>
374.29563977006859
</vert_displacement>
</event>
<event>
 4   1200 +8.6263000e+09 1.05368700e-02 7.81665300e-03            nan
       50 -1    0    0    0    0 -2.6088229691e-02 -2.0743100483e-03 +8.9183223378e+00 8.9183621342e+00 4.9935713700e-03 0.0000e+00 0.0000e+00
       11 -1    0    0    0    0 -1.8674012664e-18 -1.4847957324e-19 +6.3837549060e-16 5.1100000000e-04 5.1099893000e-04 0.0000e+00 1.0000e+00
       50  1    1    2    0    0 -2.6305789985e-02 -1.1321260195e-02 +8.8332643355e+00 8.8333121717e+00 4.9935713700e-03 0.0000e+00 0.0000e+00
       11  1    1    2    0    0 +2.1756029418e-04 +9.2469501468e-03 +8.5058002309e-02 8.5560962455e-02 5.1099893000e-04 0.0000e+00 1.0000e+00
<vert_displacement>
417.20546107218905
</vert_displacement>
</event>
<event>
 4   1200 +8.6263000e+09 2.12802100e-02 7.81665300e-03            nan
       50 -1    0    0    0    0 +6.2479885534e-03 +2.2353227307e-02 +1.4504633961e+01 1.4504653391e+01 4.9935713700e-03 0.0000e+00 0.0000e+00
       11 -1    0    0    0    0 -4.3938019542e-19 -1.5719563662e-18 -1.0200160980e-15 5.1100000000e-04 5.1099893000e-04 0.0000e+00 1.0000e+00
       50  1    1    2    0    0 -1.3693415061e-02 +1.5553681111e-02 +1.4073075013e+01 1.4073091156e+01 4.9935713700e-03 0.0000e+00 0.0000e+00
       11  1    1    2    0    0 +1.9941403614e-02 +6.7995461963e-03 +4.3155894810e-01 4.3207323478e-01 5.1099893000e-04 0.0000e+00 1.0000e+00
<vert_displacement>
57.475908670335699
</vert_displacement>
</event>
<event>
 4   1200 +8.6263000e+09 1.70908300e-02 7.81665300e-03            nan
       50 -1    0    0    0    0 +3.3096514571e-02 -6.3770994617e-03 +1.0696476425e+01 1.0696530695e+01 4.9935713700e-03 0.0000e+00 0.0000e+00
       11 -1    0    0    0    0 -3.7142892043e-18 +7.1567631796e-19 -1.2004226858e-15 5.1100000000e-04 5.1099893000e-04 0.0000e+00 1.0000e+00
       50  1    1    2    0    0 +1.9717995324e-02 +4.2559101846e-03 +1.0428362542e+01 1.0428383247e+01 4.9935713700e-03 0.0000e+00 0.0000e+00
       11  1    1    2    0    0 +1.3378519246e-02 -1.0633009646e-02 +2.6811388375e-01 2.6865844757e-01 5.1099893000e-04 0.0000e+00 1.0000e+00
<vert_displacement>
113.55300742478030
</vert_displacement>
</event>
<event>
 4   1200 +8.6263000e+09 5.36711200e-02 7.81665300e-03            nan
       50 -1    0    0    0    0 +2.8455899560e-02 +3.4798036504e-02 +2.2417798031e+01 2.2417843655e+01 4.9935713700e-03 0.0000e+00 0.0000e+00
       11 -1    0    0    0    0 +0.0000000000e+00 +0.0000000000e+00 +0.0000000000e+00 5.1100000000e-04 5.1099893000e-04 0.0000e+00 1.0000e+00
       50  1    1    2    0    0 +7.0251335601e-02 +2.4362407679e-03 +1.9145329695e+01 1.9145459390e+01 4.9935713700e-03 0.0000e+00 0.0000e+00
       11  1    1    2    0    0 -4.1795436042e-02 +3.2361795736e-02 +3.2724683361e+00 3.2728952651e+00 5.1099893000e-04 0.0000e+00 1.0000e+00
<vert_displacement>
55.232464545159367
</vert_displacement>
</event>
<event>
 4   1200 +8.6263000e+09 1.02509000e-02 7.81665300e-03            nan
       50 -1    0    0    0    0 +1.2034056916e-02 -1.2973005329e-02 +6.2969635840e+00 6.2969904265e+00 4.9935713700e-03 0.0000e+00 0.0000e+00
       11 -1    0    0    0    0 +6.4977873143e-19 -7.0047723759e-19 +3.4000445884e-16 5.1100000000e-04 5.1099893000e-04 0.0000e+00 1.0000e+00
       50  1    1    2    0    0 +1.1681291048e-02 -2.1759473798e-02 +6.2175136154e+00 6.2175646696e+00 4.9935713700e-03 0.0000e+00 0.0000e+00
       11  1    1    2    0    0 +3.5276586790e-04 +8.7864684684e-03 +7.9449968589e-02 7.9936756881e-02 5.1099893000e-04 0.0000e+00 1.0000e+00
<vert_displacement>
211.47087265326326
</vert_displacement>
</event>
<event>
 4   1200 +8.6263000e+09 1.88932200e-02 7.81665300e-03            nan
       50 -1    0    0    0    0 -1.6238883387e-02 +6.1058115047e-03 +5.5744243072e+00 5.5744535405e+00 4.9935713700e-03 0.0000e+00 0.0000e+00
       11 -1    0    0    0    0 +1.0106814357e-19 -3.8001568154e-20 -3.4694301497e-17 5.1100000000e-04 5.1099893000e-04 0.0000e+00 -1.0000e+00
       50  1    1    2    0    0 +1.3564722390e-03 +1.3271142201e-02 +5.2279295340e+00 5.2279489392e+00 4.9935713700e-03 0.0000e+00 0.0000e+00
       11  1    1    2    0    0 -1.7595355626e-02 -7.1653306960e-03 +3.4649477327e-01 3.4701560128e-01 5.1099893000e-04 0.0000e+00 -1.0000e+00
<vert_displacement>
241.72137022334886
</vert_displacement>
</event>
<event>
 4   1200 +8.6263000e+09 5.29787500e-03 7.81665300e-03            nan
       50 -1    0    0    0    0 -4.6840722806e-04 -7.9412402377e-04 +6.2166553904e-01 6.2168627797e-01 4.9935713700e-03 0.0000e+00 0.0000e+00
       11 -1    0    0    0    0 +3.7904831514e-20 +6.4262751553e-20 -5.0306925478e-17 5.1100000000e-04 5.1099893000e-04 0.0000e+00 1.0000e+00
       50  1    1    2    0    0 +4.1066494108e-04 -2.3274007197e-03 +6.1858143666e-01 6.1860610648e-01 4.9935713700e-03 0.0000e+00 0.0000e+00
       11  1    1    2    0    0 -8.7907216914e-04 +1.5332766959e-03 +3.0841023754e-03 3.5911714904e-03 5.1099893000e-04 0.0000e+00 1.0000e+00
<vert_displacement>
143.23348657880092
</vert_displacement>
</event>
<event>
 4   1200 +8.6263000e+09 1.65336600e-02 7.81665300e-03            nan
       50 -1    0    0    0    0 -6.5812382266e-02 +1.6189879619e-02 +2.3096690624e+01 2.3096790602e+01 4.9935713700e-03 0.0000e+00 0.0000e+00
       11 -1    0    0    0    0 -6.7619559606e-18 +1.6634446167e-18 +2.3730914983e-15 5.1100000000e-04 5.1099893000e-04 0.0000e+00 1.0000e+00
       50  1    1    2    0    0 -6.3618867218e-02 +3.1708283310e-02 +2.2850984653e+01 2.2851095758e+01 4.9935713700e-03 0.0000e+00 0.0000e+00
       11  1    1    2    0    0 -2.1935150487e-03 -1.5518403690e-02 +2.4570597130e-01 2.4620584439e-01 5.1099893000e-04 0.0000e+00 1.0000e+00
<vert_displacement>
313.51516516993405
</vert_displacement>
</event>
<event>
 4   1200 +8.6263000e+09 1.61879000e-02 7.81665300e-03            nan
       50 -1    0    0    0    0 -3.0753266883e-03 +5.8027326690e-03 +3.0310844313e+00 3.0310956591e+00 4.9935713700e-03 0.0000e+00 0.0000e+00
       11 -1    0    0    0    0 +1.0912246033e-19 -2.0589957739e-19 -1.0755260307e-16 5.1100000000e-04 5.1099893000e-04 0.0000e+00 1.0000e+00
       50  1    1    2    0    0 -1.2200579609e-02 +1.7527565300e-02 +2.7776514155e+00 2.7777379990e+00 4.9935713700e-03 0.0000e+00 0.0000e+00
       11  1    1    2    0    0 +9.1252529211e-03 -1.1724832631e-02 +2.5343301584e-01 2.5386866009e-01 5.1099893000e-04 0.0000e+00 1.0000e+00
<vert_displacement>
44.601761184604740
</vert_displacement>
</event>
<event>
 4   1200 +8.6263000e+09 3.46297800e-02 7.81665300e-03            nan
       50 -1    0    0    0    0 -1.5492012746e-03 -8.1556962473e-03 +9.6666758234e+00 9.6666806778e+00 4.9935713700e-03 0.0000e+00 0.0000e+00
       11 -1    0    0    0    0 +4.8929801573e-20 +2.5758860751e-19 -3.0531121919e-16 5.1100000000e-04 5.1099893000e-04 0.0000e+00 1.0000e+00
       50  1    1    2    0    0 +3.2128857845e-02 +3.4651281168e-04 +8.3332132795e+00 8.3332767193e+00 4.9935713700e-03 0.0000e+00 0.0000e+00
       11  1    1    2    0    0 -3.3678059119e-02 -8.5022090590e-03 +1.3334625439e+00 1.3339149585e+00 5.1099893000e-04 0.0000e+00 1.0000e+00
<vert_displacement>
117.53949386890032
</vert_displacement>
</event>
<event>
 4   1200 +8.6263000e+09 9.38108200e-03 7.81665300e-03            nan
       50 -1    0    0    0    0 +2.8847180397e-03 +7.1976375363e-04 +1.0048509833e+00 1.0048677894e+00 4.9935713700e-03 0.0000e+00 0.0000e+00
       11 -1    0    0    0    0 +3.5856059497e-19 +8.9464175072e-20 +1.2489954355e-16 5.1100000000e-04 5.1099893000e-04 0.0000e+00 1.0000e+00
       50  1    1    2    0    0 +5.5529559447e-03 +8.0817105925e-03 +9.3862684441e-01 9.3869134340e-01 4.9935713700e-03 0.0000e+00 0.0000e+00
       11  1    1    2    0    0 -2.6682379050e-03 -7.3619468389e-03 +6.6224138926e-02 6.6687445979e-02 5.1099893000e-04 0.0000e+00 1.0000e+00
<vert_displacement>
92.175149567895687
</vert_displacement>
</event>
<event>
 4   1200 +8.6263000e+09 2.36561700e-02 7.81665300e-03            nan
       50 -1    0    0    0    0 +3.6883656935e-02 -1.1435933253e-02 +1.2265579967e+01 1.2265641771e+01 4.9935713700e-03 0.0000e+00 0.0000e+00
       11 -1    0    0    0    0 -3.4637143469e-18 +1.0739392286e-18 -1.1518506796e-15 5.1100000000e-04 5.1099893000e-04 0.0000e+00 1.0000e+00
       50  1    1    2    0    0 +2.7647954692e-02 -3.2767666057e-02 +1.1717890207e+01 1.1717969703e+01 4.9935713700e-03 0.0000e+00 0.0000e+00
       11  1    1    2    0    0 +9.2357022427e-03 +2.1331732804e-02 +5.4768976000e-01 5.4818306737e-01 5.1099893000e-04 0.0000e+00 1.0000e+00
<vert_displacement>
372.52518379808680
</vert_displacement>
</event>
<event>
 4   1200 +8.6263000e+09 1.14118700e-02 7.81665300e-03            nan
       50 -1    0    0    0    0 -1.2554727443e-03 +1.7469923871e-02 +6.9863411859e+00 6.9863649257e+00 4.9935713700e-03 0.0000e+00 0.0000e+00
       11 -1    0    0    0    0 -0.0000000000e+00 +0.0000000000e+00 +0.0000000000e+00 5.1100000000e-04 5.1099893000e-04 0.0000e+00 1.0000e+00
       50  1    1    2    0    0 +9.0039955024e-03 +1.6557457329e-02 +6.8817373441e+00 6.8817649648e+00 4.9935713700e-03 0.0000e+00 0.0000e+00
       11  1    1    2    0    0 -1.0259468247e-02 +9.1246654267e-04 +1.0460384178e-01 1.0511096098e-01 5.1099893000e-04 0.0000e+00 1.0000e+00
<vert_displacement>
135.62031986898566
</vert_displacement>
</event>
<event>
 4   1200 +8.6263000e+09 1.48105700e-02 7.81665300e-03            nan
       50 -1    0    0    0    0 +9.4311619758e-02 +8.2475866721e-02 +3.4990160036e+01 3.4990384697e+01 4.9935713700e-03 0.0000e+00 0.0000e+00
       11 -1    0    0    0    0 -2.1695253409e-18 -1.8972580826e-18 -8.0490653300e-16 5.1100000000e-04 5.1099893000e-04 0.0000e+00 1.0000e+00
       50  1    1    2    0    0 +8.5497263725e-02 +9.3229785286e-02 +3.4798876040e+01 3.4799106313e+01 4.9935713700e-03 0.0000e+00 0.0000e+00
       11  1    1    2    0    0 +8.8143560325e-03 -1.0753918566e-02 +1.9128399528e-01 1.9178938346e-01 5.1099893000e-04 0.0000e+00 1.0000e+00
<vert_displacement>
2.6445628171802142
</vert_displacement>
</event>
<event>
 4   1200 +8.6263000e+09 3.42731600e-02 7.81665300e-03            nan
       50 -1    0    0    0    0 -2.1881685117e-02 +1.5921995807e-02 +4.0849165252e+01 4.0849174521e+01 4.9935713700e-03 0.0000e+00 0.0000e+00
       11 -1    0    0    0    0 -5.7984554947e-19 +4.2191898650e-19 +1.0824672115e-15 5.1100000000e-04 5.1099893000e-04 0.0000e+00 1.0000e+00
       50  1    1    2    0    0 -5.3099565967e-02 +3.8066598074e-03 +3.9691338019e+01 3.9691374034e+01 4.9935713700e-03 0.0000e+00 0.0000e+00
       11  1    1    2    0    0 +3.1217880850e-02 +1.2115336000e-02 +1.1578272334e+00 1.1583114870e+00 5.1099893000e-04 0.0000e+00 1.0000e+00
<vert_displacement>
466.53680309943530
</vert_displacement>
</event>
<event>
 4   1200 +8.6263000e+09 1.46718600e-02 7.81665300e-03            nan
       50 -1    0    0    0    0 -2.7514587458e-02 -3.7455631120e-02 +1.5461555006e+01 1.5461625662e+01 4.9935713700e-03 0.0000e+00 0.0000e+00
       11 -1    0    0    0    0 -1.8028142271e-18 -2.4541725284e-18 +1.0130739333e-15 5.1100000000e-04 5.1099893000e-04 0.0000e+00 -1.0000e+00
       50  1    1    2    0    0 -1.6540532584e-02 -2.8215534423e-02 +1.5273056705e+01 1.5273092540e+01 4.9935713700e-03 0.0000e+00 0.0000e+00
       11  1    1    2    0    0 -1.0974054874e-02 -9.2400966973e-03 +1.8849830123e-01 1.8904412171e-01 5.1099893000e-04 0.0000e+00 -1.0000e+00
<vert_displacement>
115.10784771331508
</vert_displacement>
</event>
<event>
 4   1200 +8.6263000e+09 2.11086400e-02 7.81665300e-03            nan
       50 -1    0    0    0    0 +4.5705922354e-02 -2.9773291062e-02 +1.4114389011e+01 1.4114495300e+01 4.9935713700e-03 0.0000e+00 0.0000e+00
       11 -1    0    0    0    0 +1.1010156152e-18 -7.1721248993e-19 +3.4000326216e-16 5.1100000000e-04 5.1099893000e-04 0.0000e+00 1.0000e+00
       50  1    1    2    0    0 +4.8494553500e-02 -4.8960588959e-02 +1.3689955448e+01 1.3690129801e+01 4.9935713700e-03 0.0000e+00 0.0000e+00
       11  1    1    2    0    0 -2.7886311464e-03 +1.9187297897e-02 +4.2443356271e-01 4.2487649869e-01 5.1099893000e-04 0.0000e+00 1.0000e+00
<vert_displacement>
244.94865177418703
</vert_displacement>
</event>
<event>
 4   1200 +8.6263000e+09 1.57848500e-02 7.81665300e-03            nan
       50 -1    0    0    0    0 -1.0322550697e-02 -4.8945989579e-04 +6.1162257127e+00 6.1162364816e+00 4.9935713700e-03 0.0000e+00 0.0000e+00
       11 -1    0    0    0    0 +8.6661233688e-19 +4.1091780176e-20 -5.1347741594e-16 5.1100000000e-04 5.1099893000e-04 0.0000e+00 1.0000e+00
       50  1    1    2    0    0 -2.1471812391e-02 -1.0020702386e-02 +5.8882597273e+00 5.8883095202e+00 4.9935713700e-03 0.0000e+00 0.0000e+00
       11  1    1    2    0    0 +1.1149261694e-02 +9.5312424905e-03 +2.2796598540e-01 2.2843796146e-01 5.1099893000e-04 0.0000e+00 1.0000e+00
<vert_displacement>
31.155230245534597
</vert_displacement>
</event>
<event>
 4   1200 +8.6263000e+09 7.09822900e-03 7.81665300e-03            nan
       50 -1    0    0    0    0 -6.3876271681e-02 +3.5594264036e-02 +2.0171447630e+01 2.0171580789e+01 4.9935713700e-03 0.0000e+00 0.0000e+00
       11 -1    0    0    0    0 -3.9551448282e-19 +2.2039556413e-19 +1.2489926959e-16 5.1100000000e-04 5.1099893000e-04 0.0000e+00 1.0000e+00
       50  1    1    2    0    0 -6.7917793474e-02 +3.2639817715e-02 +2.0146507124e+01 2.0146648665e+01 4.9935713700e-03 0.0000e+00 0.0000e+00
       11  1    1    2    0    0 +4.0415217925e-03 +2.9544463204e-03 +2.4940505548e-02 2.5443124579e-02 5.1099893000e-04 0.0000e+00 1.0000e+00
<vert_displacement>
320.17366858580152
</vert_displacement>
</event>
<event>
 4   1200 +8.6263000e+09 7.23824900e-03 7.81665300e-03            nan
       50 -1    0    0    0    0 +1.8809435049e-02 +8.1689677916e-03 +6.2835941158e+00 6.2836295622e+00 4.9935713700e-03 0.0000e+00 0.0000e+00
       11 -1    0    0    0    0 +1.6616729439e-19 +7.2166722303e-20 +5.5510855618e-17 5.1100000000e-04 5.1099893000e-04 0.0000e+00 1.0000e+00
       50  1    1    2    0    0 +1.7335533846e-02 +3.0825929412e-03 +6.2566210251e+00 6.2566477934e+00 4.9935713700e-03 0.0000e+00 0.0000e+00
       11  1    1    2    0    0 +1.4739012033e-03 +5.0863748504e-03 +2.6973090692e-02 2.7492768781e-02 5.1099893000e-04 0.0000e+00 1.0000e+00
<vert_displacement>
480.27660904469388
</vert_displacement>
</event>
<event>
 4   1200 +8.6263000e+09 1.51447600e-02 7.81665300e-03            nan
       50 -1    0    0    0    0 +1.9869959439e-02 -8.8351689213e-03 +1.5974516862e+01 1.5974532444e+01 4.9935713700e-03 0.0000e+00 0.0000e+00
       11 -1    0    0    0    0 -5.5238142646e-19 +2.4561616377e-19 -4.4408879839e-16 5.1100000000e-04 5.1099893000e-04 0.0000e+00 1.0000e+00
       50  1    1    2    0    0 +7.4797711159e-03 -1.6279081024e-02 +1.5771920499e+01 1.5771931464e+01 4.9935713700e-03 0.0000e+00 0.0000e+00
       11  1    1    2    0    0 +1.2390188323e-02 +7.4439121028e-03 +2.0259636352e-01 2.0311197952e-01 5.1099893000e-04 0.0000e+00 1.0000e+00
<vert_displacement>
132.73777445321093
</vert_displacement>
</event>
<event>
 4   1200 +8.6263000e+09 8.67226000e-03 7.81665300e-03            nan
       50 -1    0    0    0    0 +1.3697458885e-02 -2.8091671701e-03 +6.2377255660e+00 6.2377432365e+00 4.9935713700e-03 0.0000e+00 0.0000e+00
       11 -1    0    0    0    0 -1.0665984245e-19 +2.1874519231e-20 -4.8572135294e-17 5.1100000000e-04 5.1099893000e-04 0.0000e+00 1.0000e+00
       50  1    1    2    0    0 +1.1166196384e-02 +3.8768279356e-03 +6.1881440542e+00 6.1881573578e+00 4.9935713700e-03 0.0000e+00 0.0000e+00
       11  1    1    2    0    0 +2.5312625004e-03 -6.6859951057e-03 +4.9581511772e-02 5.0096878644e-02 5.1099893000e-04 0.0000e+00 1.0000e+00
<vert_displacement>
109.26852260746234
</vert_displacement>
</event>
<event>
 4   1200 +8.6263000e+09 1.67634000e-02 7.81665300e-03            nan
       50 -1    0    0    0    0 +1.1811248903e-03 -5.1813151304e-05 +2.2431877226e+00 2.2431935922e+00 4.9935713700e-03 0.0000e+00 0.0000e+00
       11 -1    0    0    0    0 +1.1326144107e-19 -4.9685111466e-21 +2.1510568115e-16 5.1100000000e-04 5.1099893000e-04 0.0000e+00 1.0000e+00
       50  1    1    2    0    0 -4.3117568375e-03 -1.5129818879e-02 +1.9551971046e+00 1.9552667736e+00 4.9935713700e-03 0.0000e+00 0.0000e+00
       11  1    1    2    0    0 +5.4928817278e-03 +1.5078005727e-02 +2.8799061802e-01 2.8843781859e-01 5.1099893000e-04 0.0000e+00 1.0000e+00
<vert_displacement>
83.059195789155567
</vert_displacement>
</event>
<event>
 4   1200 +8.6263000e+09 1.35034900e-02 7.81665300e-03            nan
       50 -1    0    0    0    0 -1.1449451985e-02 -1.1923517593e-02 +2.3905005440e+01 2.3905011677e+01 4.9935713700e-03 0.0000e+00 0.0000e+00
       11 -1    0    0    0    0 -1.7281814543e-18 -1.7997369656e-18 +3.6082239673e-15 5.1100000000e-04 5.1099893000e-04 0.0000e+00 1.0000e+00
       50  1    1    2    0    0 -2.2254481900e-02 -5.5972153947e-03 +2.3749973627e+01 2.3749985238e+01 4.9935713700e-03 0.0000e+00 0.0000e+00
       11  1    1    2    0    0 +1.0805029914e-02 -6.3263021978e-03 +1.5503181294e-01 1.5553743895e-01 5.1099893000e-04 0.0000e+00 1.0000e+00
<vert_displacement>
93.508683150664126
</vert_displacement>
</event>
<event>
 4   1200 +8.6263000e+09 1.62871700e-02 7.81665300e-03            nan
       50 -1    0    0    0    0 +8.3320612064e-03 +2.5604296778e-02 +1.1457234865e+01 1.1457267593e+01 4.9935713700e-03 0.0000e+00 0.0000e+00
       11 -1    0    0    0    0 -9.5877187204e-20 -2.9462913133e-19 -1.3183862010e-16 5.1100000000e-04 5.1099893000e-04 0.0000e+00 1.0000e+00
       50  1    1    2    0    0 -2.0330348686e-05 +3.8237920857e-02 +1.1216991592e+01 1.1217057878e+01 4.9935713700e-03 0.0000e+00 0.0000e+00
       11  1    1    2    0    0 +8.3523915551e-03 -1.2633624078e-02 +2.4024327371e-01 2.4072071490e-01 5.1099893000e-04 0.0000e+00 1.0000e+00
<vert_displacement>
409.65694067918236
</vert_displacement>
</event>
<event>
 4   1200 +8.6263000e+09 1.09677600e-02 7.81665300e-03            nan
       50 -1    0    0    0    0 +3.3547897881e-02 -4.1731003912e-02 +2.6604354924e+01 2.6604409273e+01 4.9935713700e-03 0.0000e+00 0.0000e+00
       11 -1    0    0    0    0 +1.0149857294e-18 -1.2625641581e-18 +8.0491006269e-16 5.1100000000e-04 5.1099893000e-04 0.0000e+00 1.0000e+00
       50  1    1    2    0    0 +4.0048192923e-02 -4.8764157976e-02 +2.6510700564e+01 2.6510776132e+01 4.9935713700e-03 0.0000e+00 0.0000e+00
       11  1    1    2    0    0 -6.5002950423e-03 +7.0331540635e-03 +9.3654359428e-02 9.4144140824e-02 5.1099893000e-04 0.0000e+00 1.0000e+00
<vert_displacement>
491.11340565625335
</vert_displacement>
</event>
<event>
 4   1200 +8.6263000e+09 1.94510900e-02 7.81665300e-03            nan
       50 -1    0    0    0    0 +7.2129241854e-03 +4.0566294079e-02 +1.6133401030e+01 1.6133454416e+01 4.9935713700e-03 0.0000e+00 0.0000e+00
       11 -1    0    0    0    0 +7.0110442496e-19 +3.9430898692e-18 +1.5681849083e-15 5.1100000000e-04 5.1099893000e-04 0.0000e+00 1.0000e+00
       50  1    1    2    0    0 +2.5095218139e-02 +4.4964414135e-02 +1.5779807824e+01 1.5779892632e+01 4.9935713700e-03 0.0000e+00 0.0000e+00
       11  1    1    2    0    0 -1.7882293953e-02 -4.3981200564e-03 +3.5359320580e-01 3.5407278377e-01 5.1099893000e-04 0.0000e+00 1.0000e+00
<vert_displacement>
344.93672086285534
</vert_displacement>
</event>
<event>
 4   1200 +8.6263000e+09 3.55972400e-02 7.81665300e-03            nan
       50 -1    0    0    0    0 -8.5188547391e-03 -4.2156803561e-03 +2.3692451090e+01 2.3692453523e+01 4.9935713700e-03 0.0000e+00 0.0000e+00
       11 -1    0    0    0    0 +1.1177365338e-18 +5.5312833627e-19 -3.1086242188e-15 5.1100000000e-04 5.1099893000e-04 0.0000e+00 1.0000e+00
       50  1    1    2    0    0 -2.3212584975e-02 -3.5807205929e-02 +2.2407128024e+01 2.2407169214e+01 4.9935713700e-03 0.0000e+00 0.0000e+00
       11  1    1    2    0    0 +1.4693730236e-02 +3.1591525572e-02 +1.2853230667e+00 1.2857953092e+00 5.1099893000e-04 0.0000e+00 1.0000e+00
<vert_displacement>
272.16001554973656
</vert_displacement>
</event>
<event>
 4   1200 +8.6263000e+09 5.49052800e-02 7.81665300e-03            nan
       50 -1    0    0    0    0 +2.6692232862e-02 +5.2434247797e-02 +2.3914678088e+01 2.3914750988e+01 4.9935713700e-03 0.0000e+00 0.0000e+00
       11 -1    0    0    0    0 +7.8996794713e-19 +1.5518137919e-18 +7.0776503612e-16 5.1100000000e-04 5.1099893000e-04 0.0000e+00 1.0000e+00
       50  1    1    2    0    0 +5.4313251762e-02 +8.9692430524e-02 +2.0501640765e+01 2.0501909512e+01 4.9935713700e-03 0.0000e+00 0.0000e+00
       11  1    1    2    0    0 -2.7621018900e-02 -3.7258182727e-02 +3.4130373233e+00 3.4133524759e+00 5.1099893000e-04 0.0000e+00 1.0000e+00
<vert_displacement>
272.14889638478189
</vert_displacement>
</event>
<event>
 4   1200 +8.6263000e+09 1.30900200e-02 7.81665300e-03            nan
       50 -1    0    0    0    0 +4.0955062068e-02 +7.6931823502e-03 +1.5970998943e+01 1.5971054088e+01 4.9935713700e-03 0.0000e+00 0.0000e+00
       11 -1    0    0    0    0 -2.4199321239e-18 -4.5457089220e-19 -9.4368635869e-16 5.1100000000e-04 5.1099893000e-04 0.0000e+00 1.0000e+00
       50  1    1    2    0    0 +2.8693650180e-02 +5.3821385996e-03 +1.5826454507e+01 1.5826482221e+01 4.9935713700e-03 0.0000e+00 0.0000e+00
       11  1    1    2    0    0 +1.2261411888e-02 +2.3110437506e-03 +1.4454443526e-01 1.4508286608e-01 5.1099893000e-04 0.0000e+00 1.0000e+00
<vert_displacement>
334.52788617027130
</vert_displacement>
</event>
<event>
 4   1200 +8.6263000e+09 7.27325000e-03 7.81665300e-03            nan
       50 -1    0    0    0    0 -6.0346282218e-03 +1.5843652773e-03 +1.0894069451e+01 1.0894072382e+01 4.9935713700e-03 0.0000e+00 0.0000e+00
       11 -1    0    0    0    0 -2.9596563058e-19 +7.7704483381e-20 +5.3429474298e-16 5.1100000000e-04 5.1099893000e-04 0.0000e+00 1.0000e+00
       50  1    1    2    0    0 -4.5440535739e-03 +6.6585319523e-03 +1.0866636576e+01 1.0866640713e+01 4.9935713700e-03 0.0000e+00 0.0000e+00
       11  1    1    2    0    0 -1.4905746479e-03 -5.0741666750e-03 +2.7432875612e-02 2.7942669244e-02 5.1099893000e-04 0.0000e+00 1.0000e+00
<vert_displacement>
5.7945493798464360
</vert_displacement>
</event>
<event>
 4   1200 +8.6263000e+09 5.46224200e-03 7.81665300e-03            nan
       50 -1    0    0    0    0 -3.6965710028e-02 -1.4243449312e-02 +1.3042746523e+01 1.3042807640e+01 4.9935713700e-03 0.0000e+00 0.0000e+00
       11 -1    0    0    0    0 -1.3372947971e-18 -5.1527998901e-19 +4.7184260903e-16 5.1100000000e-04 5.1099893000e-04 0.0000e+00 1.0000e+00
       50  1    1    2    0    0 -3.7925308804e-02 -1.6226476296e-02 +1.3037944818e+01 1.3038011031e+01 4.9935713700e-03 0.0000e+00 0.0000e+00
       11  1    1    2    0    0 +9.5959877640e-04 +1.9830269837e-03 +4.8017049138e-03 5.3076092372e-03 5.1099893000e-04 0.0000e+00 1.0000e+00
<vert_displacement>
218.66733860491104
</vert_displacement>
</event>
<event>
 4   1200 +8.6263000e+09 2.15611600e-02 7.81665300e-03            nan
       50 -1    0    0    0    0 +5.6986919142e-03 -3.2637923832e-03 +2.9678821104e+00 2.9678935770e+00 4.9935713700e-03 0.0000e+00 0.0000e+00
       11 -1    0    0    0    0 -4.6632184527e-20 +2.6707491994e-20 -2.4286069209e-17 5.1100000000e-04 5.1099893000e-04 0.0000e+00 1.0000e+00
       50  1    1    2    0    0 +1.9242100908e-02 -1.7796531410e-02 +2.4441180893e+00 2.4442637225e+00 4.9935713700e-03 0.0000e+00 0.0000e+00
       11  1    1    2    0    0 -1.3543408993e-02 +1.4532739027e-02 +5.2376402113e-01 5.2414085452e-01 5.1099893000e-04 0.0000e+00 1.0000e+00
<vert_displacement>
33.182098738179754
</vert_displacement>
</event>
<event>
 4   1200 +8.6263000e+09 2.70599800e-02 7.81665300e-03            nan
       50 -1    0    0    0    0 -3.0420582862e-02 +2.3889981074e-02 +9.6135745942e+00 9.6136537049e+00 4.9935713700e-03 0.0000e+00 0.0000e+00
       11 -1    0    0    0    0 -4.9402835992e-18 +3.8797179601e-18 +1.5612384915e-15 5.1100000000e-04 5.1099893000e-04 0.0000e+00 1.0000e+00
       50  1    1    2    0    0 -2.2558730046e-03 +2.8524101759e-02 +8.8627270784e+00 8.8627746736e+00 4.9935713700e-03 0.0000e+00 0.0000e+00
       11  1    1    2    0    0 -2.8164709858e-02 -4.6341206848e-03 +7.5084751583e-01 7.5139003128e-01 5.1099893000e-04 0.0000e+00 1.0000e+00
<vert_displacement>
123.13633242003721
</vert_displacement>
</event>
<event>
 4   1200 +8.6263000e+09 2.14133300e-02 7.81665300e-03            nan
       50 -1    0    0    0    0 -4.6197363165e-02 -3.5921699341e-02 +1.8939792342e+01 1.8939883407e+01 4.9935713700e-03 0.0000e+00 0.0000e+00
       11 -1    0    0    0    0 +2.9111098635e-18 +2.2635926836e-18 -1.1934840545e-15 5.1100000000e-04 5.1099893000e-04 0.0000e+00 1.0000e+00
       50  1    1    2    0    0 -3.3471779937e-02 -1.7850322654e-02 +1.8505614365e+01 1.8505653919e+01 4.9935713700e-03 0.0000e+00 0.0000e+00
       11  1    1    2    0    0 -1.2725583228e-02 -1.8071376687e-02 +4.3417797707e-01 4.3474048813e-01 5.1099893000e-04 0.0000e+00 1.0000e+00
<vert_displacement>
392.36840141664715
</vert_displacement>
</event>
<event>
 4   1200 +8.6263000e+09 1.14802700e-02 7.81665300e-03            nan
       50 -1    0    0    0    0 +3.7972341285e-03 +1.9887016896e-03 +7.8332595836e+00 7.8332623481e+00 4.9935713700e-03 0.0000e+00 0.0000e+00
       11 -1    0    0    0    0 +3.2291355213e-19 +1.6911749579e-19 +6.6613371504e-16 5.1100000000e-04 5.1099893000e-04 0.0000e+00 1.0000e+00
       50  1    1    2    0    0 +2.2394930122e-03 -8.2652264204e-03 +7.7272564724e+00 7.7272628307e+00 4.9935713700e-03 0.0000e+00 0.0000e+00
       11  1    1    2    0    0 +1.5577411164e-03 +1.0253928110e-02 +1.0600311122e-01 1.0651051735e-01 5.1099893000e-04 0.0000e+00 1.0000e+00
<vert_displacement>
450.04106345589599
</vert_displacement>
</event>
<event>
 4   1200 +8.6263000e+09 7.62756400e-03 7.81665300e-03            nan
       50 -1    0    0    0    0 -5.0850868433e-02 +3.0453938458e-02 +1.4826867377e+01 1.4826986693e+01 4.9935713700e-03 0.0000e+00 0.0000e+00
       11 -1    0    0    0    0 -5.7114580319e-19 +3.4205195854e-19 +1.6653212300e-16 5.1100000000e-04 5.1099893000e-04 0.0000e+00 1.0000e+00
       50  1    1    2    0    0 -5.6502605095e-02 +3.0545423866e-02 +1.4794246269e+01 1.4794386543e+01 4.9935713700e-03 0.0000e+00 0.0000e+00
       11  1    1    2    0    0 +5.6517366626e-03 -9.1485407895e-05 +3.2621107261e-02 3.3111150021e-02 5.1099893000e-04 0.0000e+00 1.0000e+00
<vert_displacement>
29.584580872863917
</vert_displacement>
</event>
<event>
 4   1200 +8.6263000e+09 8.41257500e-03 7.81665300e-03            nan
       50 -1    0    0    0    0 +2.8592344834e-02 +6.5549785024e-03 +9.3468464702e+00 9.3468938351e+00 4.9935713700e-03 0.0000e+00 0.0000e+00
       11 -1    0    0    0    0 +2.0164914155e-18 +4.6229359487e-19 +6.5919167451e-16 5.1100000000e-04 5.1099893000e-04 0.0000e+00 1.0000e+00
       50  1    1    2    0    0 +2.2133537963e-02 +8.9484661972e-03 +9.3017950052e+00 9.3018269831e+00 4.9935713700e-03 0.0000e+00 0.0000e+00
       11  1    1    2    0    0 +6.4588068715e-03 -2.3934876948e-03 +4.5051465032e-02 4.5577851979e-02 5.1099893000e-04 0.0000e+00 1.0000e+00
<vert_displacement>
246.21163861783242
</vert_displacement>
</event>
<event>
 4   1200 +8.6263000e+09 4.03749700e-02 7.81665300e-03            nan
       50 -1    0    0    0    0 +3.9492860040e-03 +8.5346068620e-03 +7.1394768024e+00 7.1394847422e+00 4.9935713700e-03 0.0000e+00 0.0000e+00
       11 -1    0    0    0    0 +1.5737144277e-19 +3.4008764976e-19 +2.8449440326e-16 5.1100000000e-04 5.1099893000e-04 0.0000e+00 1.0000e+00
       50  1    1    2    0    0 -3.3091016378e-02 -1.2359727101e-02 +4.7986406921e+00 4.7987733022e+00 4.9935713700e-03 0.0000e+00 0.0000e+00
       11  1    1    2    0    0 +3.7040302382e-02 +2.0894333963e-02 +2.3408361103e+00 2.3412224400e+00 5.1099893000e-04 0.0000e+00 1.0000e+00
<vert_displacement>
446.05386209156745
</vert_displacement>
</event>
<event>
 4   1200 +8.6263000e+09 3.52116500e-02 7.81665300e-03            nan
       50 -1    0    0    0    0 +1.7688528486e-02 -6.2440986671e-02 +2.8277016394e+01 2.8277091308e+01 4.9935713700e-03 0.0000e+00 0.0000e+00
       11 -1    0    0    0    0 +1.9445774224e-18 -6.8644111921e-18 +3.1086162818e-15 5.1100000000e-04 5.1099893000e-04 0.0000e+00 1.0000e+00
       50  1    1    2    0    0 -1.5866454356e-02 -7.1551953596e-02 +2.7033488288e+01 2.7033588097e+01 4.9935713700e-03 0.0000e+00 0.0000e+00
       11  1    1    2    0    0 +3.3554982842e-02 +9.1109669245e-03 +1.2435281060e+00 1.2440142114e+00 5.1099893000e-04 0.0000e+00 1.0000e+00
<vert_displacement>
372.97564627547035
</vert_displacement>
</event>
<event>
 4   1200 +8.6263000e+09 1.64041500e-02 7.81665300e-03            nan
       50 -1    0    0    0    0 -5.7561537213e-03 +7.0017182438e-03 +4.1846590783e+00 4.1846718742e+00 4.9935713700e-03 0.0000e+00 0.0000e+00
       11 -1    0    0    0    0 +1.6225961874e-19 -1.9737070756e-19 -1.1796091965e-16 5.1100000000e-04 5.1099893000e-04 0.0000e+00 1.0000e+00
       50  1    1    2    0    0 -1.7528834639e-02 -3.2830711439e-03 +3.9301582788e+00 3.9302019122e+00 4.9935713700e-03 0.0000e+00 0.0000e+00
       11  1    1    2    0    0 +1.1772680918e-02 +1.0284789388e-02 +2.5450079946e-01 2.5498096194e-01 5.1099893000e-04 0.0000e+00 1.0000e+00
<vert_displacement>
485.95852408104781
</vert_displacement>
</event>
<event>
 4   1200 +8.6263000e+09 1.89447200e-02 7.81665300e-03            nan
       50 -1    0    0    0    0 -4.9807035767e-03 -2.0510549308e-04 +1.4714869815e+01 1.4714871506e+01 4.9935713700e-03 0.0000e+00 0.0000e+00
       11 -1    0    0    0    0 -6.3649322416e-19 -2.6210806280e-20 +1.8804401401e-15 5.1100000000e-04 5.1099893000e-04 0.0000e+00 1.0000e+00
       50  1    1    2    0    0 +1.2869859673e-02 +4.1986534424e-03 +1.4380475225e+01 1.4380482464e+01 4.9935713700e-03 0.0000e+00 0.0000e+00
       11  1    1    2    0    0 -1.7850563249e-02 -4.4037589355e-03 +3.3439458985e-01 3.3490004261e-01 5.1099893000e-04 0.0000e+00 1.0000e+00
<vert_displacement>
278.47169447462130
</vert_displacement>
</event>
<event>
 4   1200 +8.6263000e+09 1.29000900e-02 7.81665300e-03            nan
       50 -1    0    0    0    0 -3.6811878470e-03 +2.1431992348e-03 +1.2786355283e+00 1.2786523743e+00 4.9935713700e-03 0.0000e+00 0.0000e+00
       11 -1    0    0    0    0 -4.6945818078e-19 +2.7332004115e-19 +1.6306310190e-16 5.1100000000e-04 5.1099893000e-04 0.0000e+00 1.0000e+00
       50  1    1    2    0    0 -4.9151133591e-03 -9.8961558340e-03 +1.1201433904e+00 1.1202090176e+00 4.9935713700e-03 0.0000e+00 0.0000e+00
       11  1    1    2    0    0 +1.2339255121e-03 +1.2039355069e-02 +1.5849213785e-01 1.5895435673e-01 5.1099893000e-04 0.0000e+00 1.0000e+00
<vert_displacement>
189.44756013345329
</vert_displacement>
</event>
<event>
 4   1200 +8.6263000e+09 3.16466200e-02 7.81665300e-03            nan
       50 -1    0    0    0    0 -4.6616558789e-03 +1.4709143018e-02 +6.1083745916e+00 6.1083961215e+00 4.9935713700e-03 0.0000e+00 0.0000e+00
       11 -1    0    0    0    0 +5.8250022260e-20 -1.8379904706e-19 -7.6327589420e-17 5.1100000000e-04 5.1099893000e-04 0.0000e+00 1.0000e+00
       50  1    1    2    0    0 -1.1205641054e-02 +4.2199027116e-02 +4.9209658733e+00 4.9211620971e+00 4.9935713700e-03 0.0000e+00 0.0000e+00
       11  1    1    2    0    0 +6.5439851751e-03 -2.7489884098e-02 +1.1874087183e+00 1.1877450244e+00 5.1099893000e-04 0.0000e+00 1.0000e+00
<vert_displacement>
479.69291667910477
</vert_displacement>
</event>
<event>
 4   1200 +8.6263000e+09 1.12560300e-02 7.81665300e-03            nan
       50 -1    0    0    0    0 +2.9766810769e-02 -6.8880952848e-03 +1.0941843374e+01 1.0941887171e+01 4.9935713700e-03 0.0000e+00 0.0000e+00
       11 -1    0    0    0    0 -3.7753773194e-20 +8.7362932207e-21 -1.3877733704e-17 5.1100000000e-04 5.1099893000e-04 0.0000e+00 1.0000e+00
       50  1    1    2    0    0 +2.9210813524e-02 -1.6908604385e-02 +1.0841336523e+01 1.0841390212e+01 4.9935713700e-03 0.0000e+00 0.0000e+00
       11  1    1    2    0    0 +5.5599724461e-04 +1.0020509100e-02 +1.0050685075e-01 1.0100795960e-01 5.1099893000e-04 0.0000e+00 1.0000e+00
<vert_displacement>
28.954702621271341
</vert_displacement>
</event>
<event>
 4   1200 +8.6263000e+09 1.27075200e-02 7.81665300e-03            nan
       50 -1    0    0    0    0 -8.4533044339e-02 +6.5227898100e-02 +3.3057943497e+01 3.3058116306e+01 4.9935713700e-03 0.0000e+00 0.0000e+00
       11 -1    0    0    0    0 -8.7652762391e-18 +6.7635153781e-18 +3.4277957090e-15 5.1100000000e-04 5.1099893000e-04 0.0000e+00 1.0000e+00
       50  1    1    2    0    0 -7.8802761228e-02 +5.4593931144e-02 +3.2923825677e+01 3.2923965626e+01 4.9935713700e-03 0.0000e+00 0.0000e+00
       11  1    1    2    0    0 -5.7302831109e-03 +1.0633966956e-02 +1.3411782002e-01 1.3466168039e-01 5.1099893000e-04 0.0000e+00 1.0000e+00
<vert_displacement>
93.706850726403388
</vert_displacement>
</event>
<event>
 4   1200 +8.6263000e+09 5.06870000e-03 7.81665300e-03            nan
       50 -1    0    0    0    0 -7.3414603382e-03 +7.5086054259e-04 +6.9388214302e+00 6.9388271514e+00 4.9935713700e-03 0.0000e+00 0.0000e+00
       11 -1    0    0    0    0 -3.6707664326e-20 +3.7543398021e-21 +3.4694449898e-17 5.1100000000e-04 5.1099893000e-04 0.0000e+00 1.0000e+00
       50  1    1    2    0    0 -7.7769668764e-03 +1.5028571928e-03 +6.9380810601e+00 6.9380873786e+00 4.9935713700e-03 0.0000e+00 0.0000e+00
       11  1    1    2    0    0 +4.3550653813e-04 -7.5199665022e-04 +7.4037005666e-04 1.2507728147e-03 5.1099893000e-04 0.0000e+00 1.0000e+00
<vert_displacement>
353.74029615533436
</vert_displacement>
</event>
<event>
 4   1200 +8.6263000e+09 1.03236100e-02 7.81665300e-03            nan
       50 -1    0    0    0    0 -5.4822872114e-02 -2.7775548830e-02 +2.7294432663e+01 2.7294502310e+01 4.9935713700e-03 0.0000e+00 0.0000e+00
       11 -1    0    0    0    0 -3.9024279191e-18 -1.9771324092e-18 +1.9428853680e-15 5.1100000000e-04 5.1099893000e-04 0.0000e+00 1.0000e+00
       50  1    1    2    0    0 -4.5743669970e-02 -2.9144992790e-02 +2.7214328634e+01 2.7214383143e+01 4.9935713700e-03 0.0000e+00 0.0000e+00
       11  1    1    2    0    0 -9.0792021437e-03 +1.3694439604e-03 +8.0104028708e-02 8.0630166957e-02 5.1099893000e-04 0.0000e+00 1.0000e+00
<vert_displacement>
255.18669801740097
</vert_displacement>
</event>
<event>
 4   1200 +8.6263000e+09 7.24232100e-03 7.81665300e-03            nan
       50 -1    0    0    0    0 -8.3089429032e-03 -9.3320465253e-03 +5.1633653256e+00 5.1633828588e+00 4.9935713700e-03 0.0000e+00 0.0000e+00
       11 -1    0    0    0    0 +7.9279379965e-19 +8.9041274077e-19 -4.9266002465e-16 5.1100000000e-04 5.1099893000e-04 0.0000e+00 1.0000e+00
       50  1    1    2    0    0 -3.0605013565e-03 -9.9347364510e-03 +5.1363042136e+00 5.1363171608e+00 4.9935713700e-03 0.0000e+00 0.0000e+00
       11  1    1    2    0    0 -5.2484415467e-03 +6.0268992569e-04 +2.7061112016e-02 2.7576698085e-02 5.1099893000e-04 0.0000e+00 1.0000e+00
<vert_displacement>
107.12144596977492
</vert_displacement>
</event>
<event>
 4   1200 +8.6263000e+09 4.63271700e-02 7.81665300e-03            nan
       50 -1    0    0    0    0 -5.1221089731e-02 +1.7212386900e-03 +2.6211196187e+01 2.6211246766e+01 4.9935713700e-03 0.0000e+00 0.0000e+00
       11 -1    0    0    0    0 +6.4001976854e-18 -2.1507289161e-19 -3.2751516621e-15 5.1100000000e-04 5.1099893000e-04 0.0000e+00 1.0000e+00
       50  1    1    2    0    0 -2.7732670083e-02 -4.0362386362e-02 +2.3938311950e+01 2.3938362562e+01 4.9935713700e-03 0.0000e+00 0.0000e+00
       11  1    1    2    0    0 -2.3488419648e-02 +4.2083625052e-02 +2.2728842369e+00 2.2733952038e+00 5.1099893000e-04 0.0000e+00 1.0000e+00
<vert_displacement>
347.44913237039935
</vert_displacement>
</event>
<event>
 4   1200 +8.6263000e+09 3.55034700e-02 7.81665300e-03            nan
       50 -1    0    0    0    0 +2.1163672868e-02 +4.0117671740e-02 +1.9829977552e+01 1.9830030055e+01 4.9935713700e-03 0.0000e+00 0.0000e+00
       11 -1    0    0    0    0 -5.6282259040e-19 -1.0668815413e-18 -5.2735455717e-16 5.1100000000e-04 5.1099893000e-04 0.0000e+00 1.0000e+00
       50  1    1    2    0    0 +4.6346528829e-02 +1.4480231379e-02 +1.8536531942e+01 1.8536596210e+01 4.9935713700e-03 0.0000e+00 0.0000e+00
       11  1    1    2    0    0 -2.5182855961e-02 +2.5637440362e-02 +1.2934456101e+00 1.2939448450e+00 5.1099893000e-04 0.0000e+00 1.0000e+00
<vert_displacement>
212.26847565614344
</vert_displacement>
</event>
<event>
 4   1200 +8.6263000e+09 1.66073900e-02 7.81665300e-03            nan
       50 -1    0    0    0    0 -2.4196123902e-02 +4.3061593125e-02 +2.0224697015e+01 2.0224757947e+01 4.9935713700e-03 0.0000e+00 0.0000e+00
       11 -1    0    0    0    0 -1.9923423621e-19 +3.5457512331e-19 +1.6653295704e-16 5.1100000000e-04 5.1099893000e-04 0.0000e+00 1.0000e+00
       50  1    1    2    0    0 -2.8781314694e-02 +2.7464915862e-02 +1.9976190679e+01 1.9976230918e+01 4.9935713700e-03 0.0000e+00 0.0000e+00
       11  1    1    2    0    0 +4.5851907925e-03 +1.5596677262e-02 +2.4850633567e-01 2.4903802983e-01 5.1099893000e-04 0.0000e+00 1.0000e+00
<vert_displacement>
298.69851143592945
</vert_displacement>
</event>
<event>
 4   1200 +8.6263000e+09 6.90493300e-03 7.81665300e-03            nan
       50 -1    0    0    0    0 +2.8038998613e-02 +3.5333460023e-02 +2.2578930696e+01 2.2578976304e+01 4.9935713700e-03 0.0000e+00 0.0000e+00
       11 -1    0    0    0    0 -4.1188540743e-18 -5.1903909902e-18 -3.3167846674e-15 5.1100000000e-04 5.1099893000e-04 0.0000e+00 1.0000e+00
       50  1    1    2    0    0 +2.4689613793e-02 +3.1876845296e-02 +2.2556664928e+01 2.2556701517e+01 4.9935713700e-03 0.0000e+00 0.0000e+00
       11  1    1    2    0    0 +3.3493848201e-03 +3.4566147275e-03 +2.2265767519e-02 2.2785786955e-02 5.1099893000e-04 0.0000e+00 1.0000e+00
<vert_displacement>
478.51669908400203
</vert_displacement>
</event>
<event>
 4   1200 +8.6263000e+09 2.68451700e-02 7.81665300e-03            nan
       50 -1    0    0    0    0 +2.1194291388e-02 -2.6190166262e-03 +1.0580095028e+01 1.0580117759e+01 4.9935713700e-03 0.0000e+00 0.0000e+00
       11 -1    0    0    0    0 -1.2510112187e-18 +1.5458970161e-19 -6.2449917919e-16 5.1100000000e-04 5.1099893000e-04 0.0000e+00 1.0000e+00
       50  1    1    2    0    0 +3.1322020888e-02 -2.6130312687e-02 +9.8485972090e+00 9.8486829467e+00 4.9935713700e-03 0.0000e+00 0.0000e+00
       11  1    1    2    0    0 -1.0127729500e-02 +2.3511296061e-02 +7.3149781897e-01 7.3194581235e-01 5.1099893000e-04 0.0000e+00 1.0000e+00
<vert_displacement>
263.40246213669548
</vert_displacement>
</event>
<event>
 4   1200 +8.6263000e+09 6.56766200e-03 7.81665300e-03            nan
       50 -1    0    0    0    0 -3.5848767625e-02 -4.5031644741e-02 +2.2191644078e+01 2.2191719285e+01 4.9935713700e-03 0.0000e+00 0.0000e+00
       11 -1    0    0    0    0 -3.2506599192e-18 -4.0833359791e-18 +2.0122724636e-15 5.1100000000e-04 5.1099893000e-04 0.0000e+00 1.0000e+00
       50  1    1    2    0    0 -3.3683542988e-02 -4.1303062926e-02 +2.2173833661e+01 2.2173898275e+01 4.9935713700e-03 0.0000e+00 0.0000e+00
       11  1    1    2    0    0 -2.1652246376e-03 -3.7285818141e-03 +1.7810416876e-02 1.8332009963e-02 5.1099893000e-04 0.0000e+00 1.0000e+00
<vert_displacement>
482.49466587890390
</vert_displacement>
</event>
<event>
 4   1200 +8.6263000e+09 3.06784600e-02 7.81665300e-03            nan
       50 -1    0    0    0    0 -9.4665623094e-03 -1.5183637873e-02 +5.9825360631e+00 5.9825649048e+00 4.9935713700e-03 0.0000e+00 0.0000e+00
       11 -1    0    0    0    0 +1.4383566081e-18 +2.3070133756e-18 -9.0899103583e-16 5.1100000000e-04 5.1099893000e-04 0.0000e+00 1.0000e+00
       50  1    1    2    0    0 +2.1818693729e-02 -5.8137350059e-03 +4.8831494123e+00 4.8832041708e+00 4.9935713700e-03 0.0000e+00 0.0000e+00
       11  1    1    2    0    0 -3.1285256039e-02 -9.3699028667e-03 +1.0993866507e+00 1.0998717340e+00 5.1099893000e-04 0.0000e+00 1.0000e+00
<vert_displacement>
343.54306929141683
</vert_displacement>
</event>
<event>
 4   1200 +8.6263000e+09 1.54850200e-02 7.81665300e-03            nan
       50 -1    0    0    0    0 -6.9499838455e-03 -4.1268946238e-03 +4.9906038416e+00 4.9906128856e+00 4.9935713700e-03 0.0000e+00 0.0000e+00
       11 -1    0    0    0    0 +1.1595824189e-19 +6.8855907534e-20 -8.3266617635e-17 5.1100000000e-04 5.1099893000e-04 0.0000e+00 1.0000e+00
       50  1    1    2    0    0 +6.2181714942e-03 +3.0852332861e-03 +4.7706366994e+00 4.7706443629e+00 4.9935713700e-03 0.0000e+00 0.0000e+00
       11  1    1    2    0    0 -1.3168155340e-02 -7.2121279099e-03 +2.1996714229e-01 2.2047952265e-01 5.1099893000e-04 0.0000e+00 1.0000e+00
<vert_displacement>
219.36615271126644
</vert_displacement>
</event>
<event>
 4   1200 +8.6263000e+09 2.78388500e-02 7.81665300e-03            nan
       50 -1    0    0    0    0 -3.4400682002e-03 -9.3198133664e-03 +1.1447159565e+01 1.1447164965e+01 4.9935713700e-03 0.0000e+00 0.0000e+00
       11 -1    0    0    0    0 +2.0644035358e-19 +5.5928704162e-19 -6.8695023779e-16 5.1100000000e-04 5.1099893000e-04 0.0000e+00 -1.0000e+00
       50  1    1    2    0    0 +2.1860424404e-02 +2.3620741524e-03 +1.0658815689e+01 1.0658839537e+01 4.9935713700e-03 0.0000e+00 0.0000e+00
       11  1    1    2    0    0 -2.5300492604e-02 -1.1681887519e-02 +7.8834387656e-01 7.8883642807e-01 5.1099893000e-04 0.0000e+00 -1.0000e+00
<vert_displacement>
14.857670299467364
</vert_displacement>
</event>
<event>
 4   1200 +8.6263000e+09 9.81104300e-03 7.81665300e-03            nan
       50 -1    0    0    0    0 +6.5056563736e-02 -3.2780817125e-02 +2.8656660860e+01 2.8656753890e+01 4.9935713700e-03 0.0000e+00 0.0000e+00
       11 -1    0    0    0    0 -4.6312871659e-18 +2.3336212201e-18 -2.0400282160e-15 5.1100000000e-04 5.1099893000e-04 0.0000e+00 1.0000e+00
       50  1    1    2    0    0 +5.8190749684e-02 -2.7568874202e-02 +2.8586724476e+01 2.8586797432e+01 4.9935713700e-03 0.0000e+00 0.0000e+00
       11  1    1    2    0    0 +6.8658140523e-03 -5.2119429236e-03 +6.9936384241e-02 7.0467458534e-02 5.1099893000e-04 0.0000e+00 1.0000e+00
<vert_displacement>
357.78372857050300
</vert_displacement>
</event>
<event>
 4   1200 +8.6263000e+09 3.19694600e-02 7.81665300e-03            nan
       50 -1    0    0    0    0 +9.0750312463e-03 -2.4135216576e-03 +7.8447874556e+00 7.8447946653e+00 4.9935713700e-03 0.0000e+00 0.0000e+00
       11 -1    0    0    0    0 +5.9400295206e-19 -1.5797620422e-19 +5.1347778101e-16 5.1100000000e-04 5.1099893000e-04 0.0000e+00 1.0000e+00
       50  1    1    2    0    0 +3.1821310692e-02 +1.8379046729e-02 +6.7021059142e+00 6.7022085170e+00 4.9935713700e-03 0.0000e+00 0.0000e+00
       11  1    1    2    0    0 -2.2746279446e-02 -2.0792568386e-02 +1.1426815414e+00 1.1430971483e+00 5.1099893000e-04 0.0000e+00 1.0000e+00
<vert_displacement>
39.618401301627337
</vert_displacement>
</event>
<event>
 4   1200 +8.6263000e+09 5.69970700e-03 7.81665300e-03            nan
       50 -1    0    0    0    0 +1.8183498759e-02 +1.7391716663e-02 +7.1105642998e+00 7.1106105721e+00 4.9935713700e-03 0.0000e+00 0.0000e+00
       11 -1    0    0    0    0 -1.9341377845e-18 -1.8499177073e-18 -7.5633470015e-16 5.1100000000e-04 5.1099893000e-04 0.0000e+00 1.0000e+00
       50  1    1    2    0    0 +2.0634685782e-02 +1.6169675705e-02 +7.1031643565e+00 7.1032144878e+00 4.9935713700e-03 0.0000e+00 0.0000e+00
       11  1    1    2    0    0 -2.4511870228e-03 +1.2220409582e-03 +7.3999432518e-03 7.9070842895e-03 5.1099893000e-04 0.0000e+00 1.0000e+00
<vert_displacement>
420.30740674783266
</vert_displacement>
</event>
<event>
 4   1200 +8.6263000e+09 2.56646300e-02 7.81665300e-03            nan
       50 -1    0    0    0    0 +1.3937664630e-02 -5.7728701766e-02 +5.1237423570e+01 5.1237458231e+01 4.9935713700e-03 0.0000e+00 0.0000e+00
       11 -1    0    0    0    0 -3.5485467523e-19 +1.4697799280e-18 -1.3045111777e-15 5.1100000000e-04 5.1099893000e-04 0.0000e+00 1.0000e+00
       50  1    1    2    0    0 +3.0951661494e-02 -3.8625143283e-02 +5.0609642390e+01 5.0609666840e+01 4.9935713700e-03 0.0000e+00 0.0000e+00
       11  1    1    2    0    0 -1.7013996864e-02 -1.9103558483e-02 +6.2778118042e-01 6.2830239029e-01 5.1099893000e-04 0.0000e+00 1.0000e+00
<vert_displacement>
118.26982097849935
</vert_displacement>
</event>
<event>
 4   1200 +8.6263000e+09 2.60664700e-02 7.81665300e-03            nan
       50 -1    0    0    0    0 -1.8168990912e-02 -7.6955459477e-02 +3.1518413600e+01 3.1518513179e+01 4.9935713700e-03 0.0000e+00 0.0000e+00
       11 -1    0    0    0    0 -3.1039667414e-18 -1.3146970458e-17 +5.3845647250e-15 5.1100000000e-04 5.1099893000e-04 0.0000e+00 1.0000e+00
       50  1    1    2    0    0 +7.1651103182e-03 -6.9731146281e-02 +3.0864416180e+01 3.0864496186e+01 4.9935713700e-03 0.0000e+00 0.0000e+00
       11  1    1    2    0    0 -2.5334101230e-02 -7.2243131960e-03 +6.5399742035e-01 6.5452799354e-01 5.1099893000e-04 0.0000e+00 1.0000e+00
<vert_displacement>
120.50387931148931
</vert_displacement>
</event>
<event>
 4   1200 +8.6263000e+09 1.85096400e-02 7.81665300e-03            nan
       50 -1    0    0    0    0 -2.3586135866e-03 -3.1228158616e-03 +3.7627627711e+00 3.7627681197e+00 4.9935713700e-03 0.0000e+00 0.0000e+00
       11 -1    0    0    0    0 +3.6970804019e-20 +4.8949524358e-20 -5.8980566284e-17 5.1100000000e-04 5.1099893000e-04 0.0000e+00 1.0000e+00
       50  1    1    2    0    0 +1.1631996051e-02 -1.4147650671e-02 +3.4205674722e+00 3.4206201524e+00 4.9935713700e-03 0.0000e+00 0.0000e+00
       11  1    1    2    0    0 -1.3990609637e-02 +1.1024834809e-02 +3.4219529889e-01 3.4265896726e-01 5.1099893000e-04 0.0000e+00 1.0000e+00
<vert_displacement>
261.93761091204357
</vert_displacement>
</event>
<event>
 4   1200 +8.6263000e+09 1.10531900e-02 7.81665300e-03            nan
       50 -1    0    0    0    0 -4.0006614630e-02 -2.9675123570e-02 +1.5744245051e+01 1.5744324638e+01 4.9935713700e-03 0.0000e+00 0.0000e+00
       11 -1    0    0    0    0 +3.5263712446e-19 +2.6157050129e-19 -1.3877718354e-16 5.1100000000e-04 5.1099893000e-04 0.0000e+00 1.0000e+00
       50  1    1    2    0    0 -3.2341926546e-02 -3.5987731359e-02 +1.5648521927e+01 1.5648597527e+01 4.9935713700e-03 0.0000e+00 0.0000e+00
       11  1    1    2    0    0 -7.6646880845e-03 +6.3126077894e-03 +9.5723123318e-02 9.6238110529e-02 5.1099893000e-04 0.0000e+00 1.0000e+00
<vert_displacement>
193.55855894127947
</vert_displacement>
</event>
<event>
 4   1200 +8.6263000e+09 1.04420100e-02 7.81665300e-03            nan
       50 -1    0    0    0    0 -3.9955292613e-02 -3.6040226428e-02 +2.1692097099e+01 2.1692164410e+01 4.9935713700e-03 0.0000e+00 0.0000e+00
       11 -1    0    0    0    0 +4.7289357219e-18 +4.2655654116e-18 -2.5673828458e-15 5.1100000000e-04 5.1099893000e-04 0.0000e+00 1.0000e+00
       50  1    1    2    0    0 -4.0835123836e-02 -2.6790650901e-02 +2.1609504362e+01 2.1609560129e+01 4.9935713700e-03 0.0000e+00 0.0000e+00
       11  1    1    2    0    0 +8.7983122333e-04 -9.2495755270e-03 +8.2592736484e-02 8.3115281328e-02 5.1099893000e-04 0.0000e+00 1.0000e+00
<vert_displacement>
2.8890064391858497
</vert_displacement>
</event>
<event>
 4   1200 +8.6263000e+09 1.90486500e-02 7.81665300e-03            nan
       50 -1    0    0    0    0 +5.3050045444e-02 +4.5458095955e-02 +2.5781424948e+01 2.5781520087e+01 4.9935713700e-03 0.0000e+00 0.0000e+00
       11 -1    0    0    0    0 +3.5695009700e-18 +3.0586725468e-18 +1.7347171070e-15 5.1100000000e-04 5.1099893000e-04 0.0000e+00 1.0000e+00
       50  1    1    2    0    0 +3.4391966697e-02 +4.0989599744e-02 +2.5446465179e+01 2.5446521924e+01 4.9935713700e-03 0.0000e+00 0.0000e+00
       11  1    1    2    0    0 +1.8658078747e-02 +4.4684962108e-03 +3.3495976828e-01 3.3550916358e-01 5.1099893000e-04 0.0000e+00 1.0000e+00
<vert_displacement>
296.06263259546205
</vert_displacement>
</event>
<event>
 4   1200 +8.6263000e+09 1.62436700e-02 7.81665300e-03            nan
       50 -1    0    0    0    0 +1.1654628389e-01 +8.7998477459e-02 +3.7353140398e+01 3.7353426205e+01 4.9935713700e-03 0.0000e+00 0.0000e+00
       11 -1    0    0    0    0 -1.0738408348e-17 -8.1080541860e-18 -3.4416650732e-15 5.1100000000e-04 5.1099893000e-04 0.0000e+00 1.0000e+00
       50  1    1    2    0    0 +1.3120078922e-01 +8.5991062857e-02 +3.7117833577e+01 3.7118165397e+01 4.9935713700e-03 0.0000e+00 0.0000e+00
       11  1    1    2    0    0 -1.4654505326e-02 +2.0074146024e-03 +2.3530682122e-01 2.3577180805e-01 5.1099893000e-04 0.0000e+00 1.0000e+00
<vert_displacement>
239.50800059515200
</vert_displacement>
</event>
<event>
 4   1200 +8.6263000e+09 1.56646100e-02 7.81665300e-03            nan
       50 -1    0    0    0    0 +1.9364680624e-03 +3.8060419703e-02 +3.0393755531e+01 3.0393779833e+01 4.9935713700e-03 0.0000e+00 0.0000e+00
       11 -1    0    0    0    0 -1.0610286727e-20 -2.0854047316e-19 -1.6653332278e-16 5.1100000000e-04 5.1099893000e-04 0.0000e+00 1.0000e+00
       50  1    1    2    0    0 +5.9684333264e-03 +5.2073859455e-02 +3.0176480759e+01 3.0176526693e+01 4.9935713700e-03 0.0000e+00 0.0000e+00
       11  1    1    2    0    0 -4.0319652639e-03 -1.4013439752e-02 +2.1727477178e-01 2.1776414032e-01 5.1099893000e-04 0.0000e+00 1.0000e+00
<vert_displacement>
34.005001841187031
</vert_displacement>
</event>
<event>
 4   1200 +8.6263000e+09 3.93093600e-02 7.81665300e-03            nan
       50 -1    0    0    0    0 +1.3072126022e-02 +4.4310780511e-04 +7.6272069362e+00 7.6272197858e+00 4.9935713700e-03 0.0000e+00 0.0000e+00
       11 -1    0    0    0    0 -5.3515898189e-19 -1.8140363813e-20 -3.1224976655e-16 5.1100000000e-04 5.1099893000e-04 0.0000e+00 1.0000e+00
       50  1    1    2    0    0 -2.7383771871e-02 -1.2040709705e-02 +5.5979979592e+00 5.5980801117e+00 4.9935713700e-03 0.0000e+00 0.0000e+00
       11  1    1    2    0    0 +4.0455897893e-02 +1.2483817510e-02 +2.0292089770e+00 2.0296506741e+00 5.1099893000e-04 0.0000e+00 1.0000e+00
<vert_displacement>
175.05535891151101
</vert_displacement>
</event>
<event>
 4   1200 +8.6263000e+09 6.44020500e-03 7.81665300e-03            nan
       50 -1    0    0    0    0 +5.8933129526e-02 -2.7256323973e-02 +1.7443568819e+01 1.7443690381e+01 4.9935713700e-03 0.0000e+00 0.0000e+00
       11 -1    0    0    0    0 -5.4387536078e-18 +2.5154006165e-18 -1.6098122331e-15 5.1100000000e-04 5.1099893000e-04 0.0000e+00 1.0000e+00
       50  1    1    2    0    0 +5.8981911168e-02 -3.1296687606e-02 +1.7427362261e+01 1.7427490888e+01 4.9935713700e-03 0.0000e+00 0.0000e+00
       11  1    1    2    0    0 -4.8781641514e-05 +4.0403636328e-03 +1.6206558375e-02 1.6710492878e-02 5.1099893000e-04 0.0000e+00 1.0000e+00
<vert_displacement>
484.19843782686365
</vert_displacement>
</event>
<event>
 4   1200 +8.6263000e+09 7.52587600e-02 7.81665300e-03            nan
       50 -1    0    0    0    0 -1.3953205412e-01 -1.0907744498e-01 +4.6742979083e+01 4.6743314876e+01 4.9935713700e-03 0.0000e+00 0.0000e+00
       11 -1    0    0    0    0 -1.3587781951e-17 -1.0622079259e-17 +4.5518817271e-15 5.1100000000e-04 5.1099893000e-04 0.0000e+00 1.0000e+00
       50  1    1    2    0    0 -1.5264168035e-01 -2.6317815411e-02 +4.0350872801e+01 4.0351170403e+01 4.9935713700e-03 0.0000e+00 0.0000e+00
       11  1    1    2    0    0 +1.3109626230e-02 -8.2759629569e-02 +6.3921062817e+00 6.3926554730e+00 5.1099893000e-04 0.0000e+00 1.0000e+00
<vert_displacement>
250.24176454862445
</vert_displacement>
</event>
<event>
 4   1200 +8.6263000e+09 6.65812400e-03 7.81665300e-03            nan
       50 -1    0    0    0    0 -1.0154044385e-01 -6.8819085809e-02 +4.2984517562e+01 4.2984692875e+01 4.9935713700e-03 0.0000e+00 0.0000e+00
       11 -1    0    0    0    0 +1.6391378523e-18 +1.1109264863e-18 -6.9388656506e-16 5.1100000000e-04 5.1099893000e-04 0.0000e+00 1.0000e+00
       50  1    1    2    0    0 -9.9293518107e-02 -6.4974820450e-02 +4.2965542973e+01 4.2965707126e+01 4.9935713700e-03 0.0000e+00 0.0000e+00
       11  1    1    2    0    0 -2.2469257453e-03 -3.8442653590e-03 +1.8974588926e-02 1.9496748351e-02 5.1099893000e-04 0.0000e+00 1.0000e+00
<vert_displacement>
359.63997649336545
</vert_displacement>
</event>
<event>
 4   1200 +8.6263000e+09 2.31725400e-02 7.81665300e-03            nan
       50 -1    0    0    0    0 +8.5902407534e-02 +3.9185931471e-02 +2.8828905315e+01 2.8829060362e+01 4.9935713700e-03 0.0000e+00 0.0000e+00
       11 -1    0    0    0    0 +7.5673912294e-18 +3.4520019013e-18 +2.5396215484e-15 5.1100000000e-04 5.1099893000e-04 0.0000e+00 1.0000e+00
       50  1    1    2    0    0 +8.6446524202e-02 +1.5958883433e-02 +2.8318883548e+01 2.8319020428e+01 4.9935713700e-03 0.0000e+00 0.0000e+00
       11  1    1    2    0    0 -5.4411666787e-04 +2.3227048038e-02 +5.1002176676e-01 5.1055093332e-01 5.1099893000e-04 0.0000e+00 1.0000e+00
<vert_displacement>
451.99293909937683
</vert_displacement>
</event>
<event>
 4   1200 +8.6263000e+09 2.23799100e-02 7.81665300e-03            nan
       50 -1    0    0    0    0 -1.3905563397e-02 -4.7011711223e-03 +8.3010861530e+00 8.3011006331e+00 4.9935713700e-03 0.0000e+00 0.0000e+00
       11 -1    0    0    0    0 -4.8819410025e-19 -1.6504789779e-19 +2.9143308833e-16 5.1100000000e-04 5.1099893000e-04 0.0000e+00 1.0000e+00
       50  1    1    2    0    0 +8.4348407392e-03 -8.0561339208e-03 +7.8057672688e+00 7.8057775807e+00 4.9935713700e-03 0.0000e+00 0.0000e+00
       11  1    1    2    0    0 -2.2340404136e-02 +3.3549627985e-03 +4.9531888417e-01 4.9583405245e-01 5.1099893000e-04 0.0000e+00 1.0000e+00
<vert_displacement>
318.25902151542851
</vert_displacement>
</event>
<event>
 4   1200 +8.6263000e+09 1.05250600e-02 7.81665300e-03            nan
       50 -1    0    0    0    0 +3.9782967528e-02 +3.2022852530e-02 +1.4786088863e+01 1.4786177901e+01 4.9935713700e-03 0.0000e+00 0.0000e+00
       11 -1    0    0    0    0 +2.6137229771e-19 +2.1038869308e-19 +9.7143935213e-17 5.1100000000e-04 5.1099893000e-04 0.0000e+00 1.0000e+00
       50  1    1    2    0    0 +3.3598663724e-02 +2.4743829372e-02 +1.4701641215e+01 1.4701701279e+01 4.9935713700e-03 0.0000e+00 0.0000e+00
       11  1    1    2    0    0 +6.1843038041e-03 +7.2790231576e-03 +8.4447647388e-02 8.4987622987e-02 5.1099893000e-04 0.0000e+00 1.0000e+00
<vert_displacement>
174.35884168129056
</vert_displacement>
</event>
<event>
 4   1200 +8.6263000e+09 1.34257600e-02 7.81665300e-03            nan
       50 -1    0    0    0    0 +1.2796138568e-02 +4.3776255404e-03 +4.2886026270e+00 4.2886268586e+00 4.9935713700e-03 0.0000e+00 0.0000e+00
       11 -1    0    0    0    0 +2.2774240362e-19 +7.7911860475e-20 +7.6327453416e-17 5.1100000000e-04 5.1099893000e-04 0.0000e+00 1.0000e+00
       50  1    1    2    0    0 +9.7710969762e-03 -7.9814838734e-03 +4.1307922312e+00 4.1308145167e+00 4.9935713700e-03 0.0000e+00 0.0000e+00
       11  1    1    2    0    0 +3.0250415916e-03 +1.2359109414e-02 +1.5781039581e-01 1.5832334196e-01 5.1099893000e-04 0.0000e+00 1.0000e+00
<vert_displacement>
142.76666402019532
</vert_displacement>
</event>
<event>
 4   1200 +8.6263000e+09 1.72261000e-02 7.81665300e-03            nan
       50 -1    0    0    0    0 +8.9325717788e-03 +6.1024185401e-03 +3.2443777513e+00 3.2443996300e+00 4.9935713700e-03 0.0000e+00 0.0000e+00
       11 -1    0    0    0    0 +7.3551860479e-19 +5.0248041455e-19 +2.6714593021e-16 5.1100000000e-04 5.1099893000e-04 0.0000e+00 1.0000e+00
       50  1    1    2    0    0 -8.3388915713e-03 +4.7315882701e-03 +2.9518522448e+00 2.9518720392e+00 4.9935713700e-03 0.0000e+00 0.0000e+00
       11  1    1    2    0    0 +1.7271463350e-02 +1.3708302699e-03 +2.9252550646e-01 2.9303859075e-01 5.1099893000e-04 0.0000e+00 1.0000e+00
<vert_displacement>
57.032231637896842
</vert_displacement>
</event>
<event>
 4   1200 +8.6263000e+09 1.13679900e-02 7.81665300e-03            nan
       50 -1    0    0    0    0 +2.6575436752e-02 -4.9526673681e-03 +2.3687227350e+01 2.3687243302e+01 4.9935713700e-03 0.0000e+00 0.0000e+00
       11 -1    0    0    0    0 +1.5569911435e-19 -2.9016491057e-20 +1.3877778770e-16 5.1100000000e-04 5.1099893000e-04 0.0000e+00 1.0000e+00
       50  1    1    2    0    0 +1.9141104030e-02 -1.2053229784e-02 +2.3584737535e+01 2.3584748911e+01 4.9935713700e-03 0.0000e+00 0.0000e+00
       11  1    1    2    0    0 +7.4343327223e-03 +7.1005624163e-03 +1.0248981488e-01 1.0300539094e-01 5.1099893000e-04 0.0000e+00 1.0000e+00
<vert_displacement>
32.948515414334850
</vert_displacement>
</event>
<event>
 4   1200 +8.6263000e+09 4.34619100e-02 7.81665300e-03            nan
       50 -1    0    0    0    0 +4.0132961417e-02 +7.5387552805e-03 +1.5650409302e+01 1.5650463371e+01 4.9935713700e-03 0.0000e+00 0.0000e+00
       11 -1    0    0    0    0 -1.3167277733e-18 -2.4734004429e-19 -5.1347640105e-16 5.1100000000e-04 5.1099893000e-04 0.0000e+00 1.0000e+00
       50  1    1    2    0    0 +3.6093207886e-04 +3.2657769232e-02 +1.3542073262e+01 1.3542113566e+01 4.9935713700e-03 0.0000e+00 0.0000e+00
       11  1    1    2    0    0 +3.9772029338e-02 -2.5119013951e-02 +2.1083360399e+00 2.1088608056e+00 5.1099893000e-04 0.0000e+00 1.0000e+00
<vert_displacement>
334.52788617027130
</vert_displacement>
</event>
<event>
 4   1200 +8.6263000e+09 1.57840800e-02 7.81665300e-03            nan
       50 -1    0    0    0    0 -1.6421853725e-02 +4.3114859564e-03 +7.5364478657e+00 7.5364686448e+00 4.9935713700e-03 0.0000e+00 0.0000e+00
       11 -1    0    0    0    0 +1.2246997921e-18 -3.2153958032e-19 -5.6204897994e-16 5.1100000000e-04 5.1099893000e-04 0.0000e+00 1.0000e+00
       50  1    1    2    0    0 -3.0895949822e-02 +3.7466306336e-03 +7.3102151229e+00 7.3102830777e+00 4.9935713700e-03 0.0000e+00 0.0000e+00
       11  1    1    2    0    0 +1.4474096098e-02 +5.6485532280e-04 +2.2623274285e-01 2.2669656719e-01 5.1099893000e-04 0.0000e+00 1.0000e+00
<vert_displacement>
5.7945631340182544
</vert_displacement>
</event>
<event>
 4   1200 +8.6263000e+09 1.73394100e-02 7.81665300e-03            nan
       50 -1    0    0    0    0 -4.1377642273e-02 -1.5943433791e-02 +1.4599424696e+01 1.4599492891e+01 4.9935713700e-03 0.0000e+00 0.0000e+00
       11 -1    0    0    0    0 +1.8092811960e-18 +6.9714351454e-19 -6.3837529458e-16 5.1100000000e-04 5.1099893000e-04 0.0000e+00 1.0000e+00
       50  1    1    2    0    0 -2.5149367910e-02 -9.5564717709e-03 +1.4324494957e+01 1.4324521093e+01 4.9935713700e-03 0.0000e+00 0.0000e+00
       11  1    1    2    0    0 -1.6228274362e-02 -6.3869620197e-03 +2.7492973843e-01 2.7548279867e-01 5.1099893000e-04 0.0000e+00 1.0000e+00
<vert_displacement>
218.66733860491104
</vert_displacement>
</event>
<event>
 4   1200 +8.6263000e+09 1.50601600e-02 7.81665300e-03            nan
       50 -1    0    0    0    0 +5.9277151450e-02 -3.3949600771e-02 +2.9835499297e+01 2.9835577916e+01 4.9935713700e-03 0.0000e+00 0.0000e+00
       11 -1    0    0    0    0 +1.5440492434e-18 -8.8431805681e-19 +7.7715408025e-16 5.1100000000e-04 5.1099893000e-04 0.0000e+00 1.0000e+00
       50  1    1    2    0    0 +7.1203013195e-02 -4.0799050292e-02 +2.9636610254e+01 2.9636724291e+01 4.9935713700e-03 0.0000e+00 0.0000e+00
       11  1    1    2    0    0 -1.1925861745e-02 +6.8494495207e-03 +1.9888904262e-01 1.9936462458e-01 5.1099893000e-04 0.0000e+00 1.0000e+00
<vert_displacement>
33.182104477974228
</vert_displacement>
</event>
<event>
 4   1200 +8.6263000e+09 2.51195500e-02 7.81665300e-03            nan
       50 -1    0    0    0    0 -7.0202608909e-02 +5.0541195566e-02 +2.9989508101e+01 2.9989633274e+01 4.9935713700e-03 0.0000e+00 0.0000e+00
       11 -1    0    0    0    0 -2.5989165378e-18 +1.8710465471e-18 +1.1102184061e-15 5.1100000000e-04 5.1099893000e-04 0.0000e+00 1.0000e+00
       50  1    1    2    0    0 -4.4383948937e-02 +4.6265090474e-02 +2.9384328473e+01 2.9384398839e+01 4.9935713700e-03 0.0000e+00 0.0000e+00
       11  1    1    2    0    0 -2.5818659971e-02 +4.2761050919e-03 +6.0517962809e-01 6.0574543469e-01 5.1099893000e-04 0.0000e+00 1.0000e+00
<vert_displacement>
123.13584798915008
</vert_displacement>
</event>
<event>
 4   1200 +8.6263000e+09 9.56930500e-03 7.81665300e-03            nan
       50 -1    0    0    0    0 -2.8657214283e-02 -2.0716052739e-02 +1.1043078504e+01 1.1043136247e+01 4.9935713700e-03 0.0000e+00 0.0000e+00
       11 -1    0    0    0    0 -2.7009907154e-19 -1.9525228641e-19 +1.0408287496e-16 5.1100000000e-04 5.1099893000e-04 0.0000e+00 1.0000e+00
       50  1    1    2    0    0 -3.6526590461e-02 -2.2007280876e-02 +1.0977460402e+01 1.0977544367e+01 4.9935713700e-03 0.0000e+00 0.0000e+00
       11  1    1    2    0    0 +7.8693761782e-03 +1.2912281374e-03 +6.5618101813e-02 6.6102880096e-02 5.1099893000e-04 0.0000e+00 1.0000e+00
<vert_displacement>
392.36854003998110
</vert_displacement>
</event>
<event>
 4   1200 +8.6263000e+09 1.34710800e-02 7.81665300e-03            nan
       50 -1    0    0    0    0 +2.2641414393e-02 +1.1857846405e-02 +1.8172349865e+01 1.8172368524e+01 4.9935713700e-03 0.0000e+00 0.0000e+00
       11 -1    0    0    0    0 +2.0748825739e-18 +1.0866652781e-18 +1.6653328898e-15 5.1100000000e-04 5.1099893000e-04 0.0000e+00 1.0000e+00
       50  1    1    2    0    0 +1.4496696218e-02 +2.0980595407e-03 +1.8017882147e+01 1.8017888793e+01 4.9935713700e-03 0.0000e+00 0.0000e+00
       11  1    1    2    0    0 +8.1447181751e-03 +9.7597868639e-03 +1.5446771727e-01 1.5499073093e-01 5.1099893000e-04 0.0000e+00 1.0000e+00
<vert_displacement>
450.04144119138681
</vert_displacement>
</event>
<event>
 4   1200 +8.6263000e+09 1.54267400e-02 7.81665300e-03            nan
       50 -1    0    0    0    0 -4.4439994652e-02 +2.6614547675e-02 +1.2957613650e+01 1.2957718151e+01 4.9935713700e-03 0.0000e+00 0.0000e+00
       11 -1    0    0    0    0 +2.6177515980e-19 -1.5677381433e-19 -7.6327223043e-17 5.1100000000e-04 5.1099893000e-04 0.0000e+00 1.0000e+00
       50  1    1    2    0    0 -5.8181341578e-02 +2.4251335346e-02 +1.2745625885e+01 1.2745782728e+01 4.9935713700e-03 0.0000e+00 0.0000e+00
       11  1    1    2    0    0 +1.3741346926e-02 +2.3632123286e-03 +2.1198776473e-01 2.1244642360e-01 5.1099893000e-04 0.0000e+00 1.0000e+00
<vert_displacement>
29.584580872863917
</vert_displacement>
</event>
<event>
 4   1200 +8.6263000e+09 2.71192300e-02 7.81665300e-03            nan
       50 -1    0    0    0    0 +3.1299002477e-02 -1.0580674420e-02 +1.3288934506e+01 1.3288976515e+01 4.9935713700e-03 0.0000e+00 0.0000e+00
       11 -1    0    0    0    0 +1.4218326832e-18 -4.8065265694e-19 +6.0368190390e-16 5.1100000000e-04 5.1099893000e-04 0.0000e+00 1.0000e+00
       50  1    1    2    0    0 +4.5840790529e-03 -1.9292595990e-02 +1.2552891710e+01 1.2552908366e+01 4.9935713700e-03 0.0000e+00 0.0000e+00
       11  1    1    2    0    0 +2.6714923424e-02 +8.7119215706e-03 +7.3604279577e-01 7.3657914920e-01 5.1099893000e-04 0.0000e+00 1.0000e+00
<vert_displacement>
246.21118703197510
</vert_displacement>
</event>
<event>
 4   1200 +8.6263000e+09 1.77891600e-02 7.81665300e-03            nan
       50 -1    0    0    0    0 +3.1121283179e-03 +6.7254667479e-03 +1.3655918695e+01 1.3655921619e+01 4.9935713700e-03 0.0000e+00 0.0000e+00
       11 -1    0    0    0    0 -1.9924952799e-19 -4.3058831067e-19 -8.7430050316e-16 5.1100000000e-04 5.1099893000e-04 0.0000e+00 1.0000e+00
       50  1    1    2    0    0 +1.5088792675e-02 +1.8684899836e-02 +1.3364423388e+01 1.3364445900e+01 4.9935713700e-03 0.0000e+00 0.0000e+00
       11  1    1    2    0    0 -1.1976664357e-02 -1.1959433088e-02 +2.9149530748e-01 2.9198671876e-01 5.1099893000e-04 0.0000e+00 1.0000e+00
<vert_displacement>
446.05354082011246
</vert_displacement>
</event>
<event>
 4   1200 +8.6263000e+09 1.12338500e-01 7.81665300e-03            nan
       50 -1    0    0    0    0 +1.1457015619e-01 +8.1864411261e-02 +5.1303197921e+01 5.1303391408e+01 4.9935713700e-03 0.0000e+00 0.0000e+00
       11 -1    0    0    0    0 +1.8904948994e-18 +1.3508251807e-18 +8.4654186760e-16 5.1100000000e-04 5.1099893000e-04 0.0000e+00 1.0000e+00
       50  1    1    2    0    0 -1.1224293229e-02 -2.9916446625e-02 +3.0706249276e+01 3.0706266306e+01 4.9935713700e-03 0.0000e+00 0.0000e+00
       11  1    1    2    0    0 +1.2579444942e-01 +1.1178085789e-01 +2.0596948645e+01 2.0597636101e+01 5.1099893000e-04 0.0000e+00 1.0000e+00
<vert_displacement>
372.97606885793101
</vert_displacement>
</event>
<event>
 4   1200 +8.6263000e+09 1.08675700e-02 7.81665300e-03            nan
       50 -1    0    0    0    0 -3.5091899719e-02 +4.2685377488e-02 +2.2261582234e+01 2.2261651376e+01 4.9935713700e-03 0.0000e+00 0.0000e+00
       11 -1    0    0    0    0 -2.9095203362e-18 +3.5391065987e-18 +1.8457400922e-15 5.1100000000e-04 5.1099893000e-04 0.0000e+00 1.0000e+00
       50  1    1    2    0    0 -2.7344569490e-02 +3.6563277692e-02 +2.2170064207e+01 2.2170111783e+01 4.9935713700e-03 0.0000e+00 0.0000e+00
       11  1    1    2    0    0 -7.7473302289e-03 +6.1220997952e-03 +9.1518027015e-02 9.2050592721e-02 5.1099893000e-04 0.0000e+00 1.0000e+00
<vert_displacement>
485.95888120998916
</vert_displacement>
</event>
<event>
 4   1200 +8.6263000e+09 9.59113500e-03 7.81665300e-03            nan
       50 -1    0    0    0    0 -2.8878639576e-03 -1.1892230723e-04 +8.7014250922e+00 8.7014270051e+00 4.9935713700e-03 0.0000e+00 0.0000e+00
       11 -1    0    0    0    0 +1.1514539454e-20 +4.7416901164e-22 -3.4694467606e-17 5.1100000000e-04 5.1099893000e-04 0.0000e+00 1.0000e+00
       50  1    1    2    0    0 -8.3284323784e-03 +5.9823978142e-03 +8.6353050181e+00 8.6353125504e+00 4.9935713700e-03 0.0000e+00 0.0000e+00
       11  1    1    2    0    0 +5.4405684208e-03 -6.1013201214e-03 +6.6120074141e-02 6.6625454717e-02 5.1099893000e-04 0.0000e+00 1.0000e+00
<vert_displacement>
278.47169385782462
</vert_displacement>
</event>
<event>
 4   1200 +8.6263000e+09 4.04362400e-02 7.81665300e-03            nan
       50 -1    0    0    0    0 +7.2846350769e-02 +3.3220296935e-02 +2.1711531752e+01 2.1711679947e+01 4.9935713700e-03 0.0000e+00 0.0000e+00
       11 -1    0    0    0    0 +4.0043596619e-18 +1.8261177890e-18 +1.1934816368e-15 5.1100000000e-04 5.1099893000e-04 0.0000e+00 1.0000e+00
       50  1    1    2    0    0 +6.7366435750e-02 -9.5226041229e-03 +2.0001178592e+01 2.0001294931e+01 4.9935713700e-03 0.0000e+00 0.0000e+00
       11  1    1    2    0    0 +5.4799150190e-03 +4.2742901058e-02 +1.7103531603e+00 1.7108960165e+00 5.1099893000e-04 0.0000e+00 1.0000e+00
<vert_displacement>
189.44779696894665
</vert_displacement>
</event>
<event>
 4   1200 +8.6263000e+09 7.79556800e-03 7.81665300e-03            nan
       50 -1    0    0    0    0 -2.8235769681e-02 -5.2434116986e-03 +1.0229955846e+01 1.0229997375e+01 4.9935713700e-03 0.0000e+00 0.0000e+00
       11 -1    0    0    0    0 -4.2517466850e-18 -7.8955376669e-19 +1.5404283767e-15 5.1100000000e-04 5.1099893000e-04 0.0000e+00 1.0000e+00
       50  1    1    2    0    0 -2.6531157775e-02 +5.4099493760e-04 +1.0194776582e+01 1.0194812342e+01 4.9935713700e-03 0.0000e+00 0.0000e+00
       11  1    1    2    0    0 -1.7046119063e-03 -5.7844066362e-03 +3.5179263784e-02 3.5696033144e-02 5.1099893000e-04 0.0000e+00 1.0000e+00
<vert_displacement>
479.69327641934905
</vert_displacement>
</event>
<event>
 4   1200 +8.6263000e+09 2.81931500e-02 7.81665300e-03            nan
       50 -1    0    0    0    0 +1.0009993109e-02 -7.2880393778e-03 +4.9191614919e+00 4.9191796099e+00 4.9935713700e-03 0.0000e+00 0.0000e+00
       11 -1    0    0    0    0 -5.9303572980e-19 +4.3177529734e-19 -2.9143262073e-16 5.1100000000e-04 5.1099893000e-04 0.0000e+00 1.0000e+00
       50  1    1    2    0    0 -1.8147573169e-02 +3.0385897980e-03 +3.9890565891e+00 3.9891021514e+00 4.9935713700e-03 0.0000e+00 0.0000e+00
       11  1    1    2    0    0 +2.8157566279e-02 -1.0326629176e-02 +9.3010490278e-01 9.3058845850e-01 5.1099893000e-04 0.0000e+00 1.0000e+00
<vert_displacement>
28.954681465045546
</vert_displacement>
</event>
<event>
 4   1200 +8.6263000e+09 1.07271600e-02 7.81665300e-03            nan
       50 -1    0    0    0    0 -2.4259771200e-02 +2.4788604654e-02 +1.2070553186e+01 1.2070604051e+01 4.9935713700e-03 0.0000e+00 0.0000e+00
       11 -1    0    0    0    0 -2.1197837997e-18 +2.1659925038e-18 +1.0547075191e-15 5.1100000000e-04 5.1099893000e-04 0.0000e+00 1.0000e+00
       50  1    1    2    0    0 -1.6452296701e-02 +1.8954983856e-02 +1.1981725509e+01 1.1981752838e+01 4.9935713700e-03 0.0000e+00 0.0000e+00
       11  1    1    2    0    0 -7.8074744987e-03 +5.8336207979e-03 +8.8827676854e-02 8.9362212847e-02 5.1099893000e-04 0.0000e+00 1.0000e+00
<vert_displacement>
93.706748809229495
</vert_displacement>
</event>
<event>
 4   1200 +8.6263000e+09 3.62722700e-02 7.81665300e-03            nan
       50 -1    0    0    0    0 -1.5094149015e-02 +1.5437801742e-03 +9.1567648963e+00 9.1567788287e+00 4.9935713700e-03 0.0000e+00 0.0000e+00
       11 -1    0    0    0    0 -7.3204232969e-19 +7.4870894284e-20 +4.4408860018e-16 5.1100000000e-04 5.1099893000e-04 0.0000e+00 1.0000e+00
       50  1    1    2    0    0 +2.2891836932e-03 +3.3985627342e-02 +7.6427636920e+00 7.6428412289e+00 4.9935713700e-03 0.0000e+00 0.0000e+00
       11  1    1    2    0    0 -1.7383332708e-02 -3.2441847168e-02 +1.5140012043e+00 1.5144485998e+00 5.1099893000e-04 0.0000e+00 1.0000e+00
<vert_displacement>
353.74058172332087
</vert_displacement>
</event>
<event>
 4   1200 +8.6263000e+09 4.69647800e-02 7.81665300e-03            nan
       50 -1    0    0    0    0 -4.0805680269e-02 -2.0673856023e-02 +2.0315752339e+01 2.0315804452e+01 4.9935713700e-03 0.0000e+00 0.0000e+00
       11 -1    0    0    0    0 +9.4773249464e-19 +4.8016072795e-19 -4.7184358936e-16 5.1100000000e-04 5.1099893000e-04 0.0000e+00 -1.0000e+00
       50  1    1    2    0    0 -7.3199324699e-02 +9.9413046679e-03 +1.7892460282e+01 1.7892613472e+01 4.9935713700e-03 0.0000e+00 0.0000e+00
       11  1    1    2    0    0 +3.2393644429e-02 -3.0615160691e-02 +2.4232920567e+00 2.4237019803e+00 5.1099893000e-04 0.0000e+00 -1.0000e+00
<vert_displacement>
255.18669801740097
</vert_displacement>
</event>
<event>
 4   1200 +8.6263000e+09 4.71955300e-02 7.81665300e-03            nan
       50 -1    0    0    0    0 +2.1860489059e-02 +7.1609962597e-03 +8.7336333311e+00 8.7336650530e+00 4.9935713700e-03 0.0000e+00 0.0000e+00
       11 -1    0    0    0    0 +1.9104969329e-18 +6.2583510157e-19 +7.6327568185e-16 5.1100000000e-04 5.1099893000e-04 0.0000e+00 1.0000e+00
       50  1    1    2    0    0 +4.9307383028e-02 -2.2193782225e-02 +3.9390572095e+00 3.9394314840e+00 4.9935713700e-03 0.0000e+00 0.0000e+00
       11  1    1    2    0    0 -2.7446893969e-02 +2.9354778485e-02 +4.7945761216e+00 4.7947445690e+00 5.1099893000e-04 0.0000e+00 1.0000e+00
<vert_displacement>
107.12150388553877
</vert_displacement>
</event>
<event>
 4   1200 +8.6263000e+09 1.86557400e-02 7.81665300e-03            nan
       50 -1    0    0    0    0 -1.1859324572e-02 +3.9852194473e-04 +6.3594182665e+00 6.3594312974e+00 4.9935713700e-03 0.0000e+00 0.0000e+00
       11 -1    0    0    0    0 +9.0579536988e-20 -3.0438439402e-21 -4.8572172774e-17 5.1100000000e-04 5.1099893000e-04 0.0000e+00 1.0000e+00
       50  1    1    2    0    0 -2.8134560625e-02 +6.5070432557e-03 +6.0256331563e+00 6.0257044206e+00 4.9935713700e-03 0.0000e+00 0.0000e+00
       11  1    1    2    0    0 +1.6275236053e-02 -6.1085213110e-03 +3.3378511025e-01 3.3423787680e-01 5.1099893000e-04 0.0000e+00 1.0000e+00
<vert_displacement>
347.44907304106755
</vert_displacement>
</event>
<event>
 4   1200 +8.6263000e+09 1.17515400e-02 7.81665300e-03            nan
       50 -1    0    0    0    0 +8.7696218391e-03 +1.6623617858e-02 +9.6127174390e+00 9.6127371101e+00 4.9935713700e-03 0.0000e+00 0.0000e+00
       11 -1    0    0    0    0 +1.1394535132e-19 +2.1599380358e-19 +1.2489985153e-16 5.1100000000e-04 5.1099893000e-04 0.0000e+00 1.0000e+00
       50  1    1    2    0    0 +1.9301337682e-02 +1.6716909734e-02 +9.5006653641e+00 9.5007009896e+00 4.9935713700e-03 0.0000e+00 0.0000e+00
       11  1    1    2    0    0 -1.0531715843e-02 -9.3291876073e-05 +1.1205207487e-01 1.1254712055e-01 5.1099893000e-04 0.0000e+00 1.0000e+00
<vert_displacement>
212.26832611216082
</vert_displacement>
</event>
<event>
 4   1200 +8.6263000e+09 2.58484800e-02 7.81665300e-03            nan
       50 -1    0    0    0    0 -3.8354249761e-02 +6.8258664261e-02 +3.2058981174e+01 3.2059077172e+01 4.9935713700e-03 0.0000e+00 0.0000e+00
       11 -1    0    0    0    0 -2.8224850129e-19 +5.0231475803e-19 +2.3592168914e-16 5.1100000000e-04 5.1099893000e-04 0.0000e+00 1.0000e+00
       50  1    1    2    0    0 -1.3880158971e-02 +7.5904909318e-02 +3.1416743864e+01 3.1416839023e+01 4.9935713700e-03 0.0000e+00 0.0000e+00
       11  1    1    2    0    0 -2.4474090790e-02 -7.6462450570e-03 +6.4223730978e-01 6.4274914965e-01 5.1099893000e-04 0.0000e+00 1.0000e+00
<vert_displacement>
298.69851143592945
</vert_displacement>
</event>
<event>
 4   1200 +8.6263000e+09 1.07704300e-02 7.81665300e-03            nan
       50 -1    0    0    0    0 +2.7959966913e-02 +3.5233867900e-02 +2.2515288934e+01 2.2515334417e+01 4.9935713700e-03 0.0000e+00 0.0000e+00
       11 -1    0    0    0    0 -4.4807617545e-19 -5.6464504496e-19 -3.6082176299e-16 5.1100000000e-04 5.1099893000e-04 0.0000e+00 1.0000e+00
       50  1    1    2    0    0 +2.1802850819e-02 +2.7710669082e-02 +2.2425844304e+01 2.2425872579e+01 4.9935713700e-03 0.0000e+00 0.0000e+00
       11  1    1    2    0    0 +6.1571160944e-03 +7.5231988180e-03 +8.9444630306e-02 8.9972838177e-02 5.1099893000e-04 0.0000e+00 1.0000e+00
<vert_displacement>
478.51669908400203
</vert_displacement>
</event>
<event>
 4   1200 +8.6263000e+09 1.50819800e-02 7.81665300e-03            nan
       50 -1    0    0    0    0 +2.9881927892e-02 -3.6925634616e-03 +1.2708450046e+01 1.2708486694e+01 4.9935713700e-03 0.0000e+00 0.0000e+00
       11 -1    0    0    0    0 +2.5452453570e-18 -3.1452053697e-19 +1.0824644109e-15 5.1100000000e-04 5.1099893000e-04 0.0000e+00 1.0000e+00
       50  1    1    2    0    0 +1.5429353366e-02 -9.6668857335e-04 +1.2507108586e+01 1.2507119137e+01 4.9935713700e-03 0.0000e+00 0.0000e+00
       11  1    1    2    0    0 +1.4452574526e-02 -2.7258748882e-03 +2.0134145973e-01 2.0187855714e-01 5.1099893000e-04 0.0000e+00 1.0000e+00
<vert_displacement>
263.40266483187321
</vert_displacement>
</event>
<event>
 4   1200 +8.6263000e+09 2.80039200e-02 7.81665300e-03            nan
       50 -1    0    0    0    0 -9.4479460012e-03 -1.1868094109e-02 +6.3951265369e+00 6.3951464779e+00 4.9935713700e-03 0.0000e+00 0.0000e+00
       11 -1    0    0    0    0 +5.6381934829e-19 +7.0824506035e-19 -3.8163809105e-16 5.1100000000e-04 5.1099893000e-04 0.0000e+00 1.0000e+00
       50  1    1    2    0    0 -3.3874416444e-02 -3.2240592165e-04 +5.5363614045e+00 5.5364672957e+00 4.9935713700e-03 0.0000e+00 0.0000e+00
       11  1    1    2    0    0 +2.4426470443e-02 -1.1545688187e-02 +8.5876513240e-01 8.5919018216e-01 5.1099893000e-04 0.0000e+00 1.0000e+00
<vert_displacement>
482.49440034552885
</vert_displacement>
</event>
<event>
 4   1200 +8.6263000e+09 1.35883500e-02 7.81665300e-03            nan
       50 -1    0    0    0    0 -1.9442551128e-02 -3.6074831881e-02 +1.4176909647e+01 1.4176969756e+01 4.9935713700e-03 0.0000e+00 0.0000e+00
       11 -1    0    0    0    0 -9.8967693796e-19 -1.8363037298e-18 +7.2164195103e-16 5.1100000000e-04 5.1099893000e-04 0.0000e+00 1.0000e+00
       50  1    1    2    0    0 -2.8960066734e-02 -4.3731870799e-02 +1.4018836591e+01 1.4018935604e+01 4.9935713700e-03 0.0000e+00 0.0000e+00
       11  1    1    2    0    0 +9.5175156064e-03 +7.6570389180e-03 +1.5807305539e-01 1.5854515227e-01 5.1099893000e-04 0.0000e+00 1.0000e+00
<vert_displacement>
343.54296804925860
</vert_displacement>
</event>
<event>
 4   1200 +8.6263000e+09 8.63301600e-03 7.81665300e-03            nan
       50 -1    0    0    0    0 -2.0800858079e-03 -1.2351532217e-03 +1.4936558781e+00 1.4936661844e+00 4.9935713700e-03 0.0000e+00 0.0000e+00
       11 -1    0    0    0    0 -1.8843214307e-19 -1.1189084974e-19 +1.3530825366e-16 5.1100000000e-04 5.1099893000e-04 0.0000e+00 1.0000e+00
       50  1    1    2    0    0 -7.4443466429e-03 +3.2854785250e-03 +1.4433909701e+00 1.4434225441e+00 4.9935713700e-03 0.0000e+00 0.0000e+00
       11  1    1    2    0    0 +5.3642608350e-03 -4.5206317467e-03 +5.0264908031e-02 5.0754640231e-02 5.1099893000e-04 0.0000e+00 1.0000e+00
<vert_displacement>
219.36615271126644
</vert_displacement>
</event>
<event>
 4   1200 +8.6263000e+09 1.88250400e-02 7.81665300e-03            nan
       50 -1    0    0    0    0 -1.8858868288e-03 -5.1092339604e-03 +3.6085054380e+00 3.6085130029e+00 4.9935713700e-03 0.0000e+00 0.0000e+00
       11 -1    0    0    0    0 -1.7588133540e-19 -4.7649672190e-19 +3.3653597105e-16 5.1100000000e-04 5.1099893000e-04 0.0000e+00 1.0000e+00
       50  1    1    2    0    0 -1.6669380223e-02 +5.6607170590e-03 +3.2503182708e+00 3.2503697803e+00 4.9935713700e-03 0.0000e+00 0.0000e+00
       11  1    1    2    0    0 +1.4783493394e-02 -1.0769951019e-02 +3.5818716720e-01 3.5865422260e-01 5.1099893000e-04 0.0000e+00 1.0000e+00
<vert_displacement>
14.857681626219529
</vert_displacement>
</event>
<event>
 4   1200 +8.6263000e+09 1.46519700e-02 7.81665300e-03            nan
       50 -1    0    0    0    0 +5.6705924584e-02 -2.8573082207e-02 +2.4978301285e+01 2.4978382494e+01 4.9935713700e-03 0.0000e+00 0.0000e+00
       11 -1    0    0    0    0 +2.0478480666e-18 -1.0318733286e-18 +9.0205329280e-16 5.1100000000e-04 5.1099893000e-04 0.0000e+00 1.0000e+00
       50  1    1    2    0    0 +4.4761748709e-02 -2.0806316457e-02 +2.4791270569e+01 2.4791320212e+01 4.9935713700e-03 0.0000e+00 0.0000e+00
       11  1    1    2    0    0 +1.1944175875e-02 -7.7667657493e-03 +1.8703071605e-01 1.8757328129e-01 5.1099893000e-04 0.0000e+00 1.0000e+00
<vert_displacement>
357.78372857050300
</vert_displacement>
</event>
<event>
 4   1200 +8.6263000e+09 1.48228000e-02 7.81665300e-03            nan
       50 -1    0    0    0    0 +1.1717593176e-03 -3.1163159815e-04 +8.6150531415e-01 8.6152063945e-01 4.9935713700e-03 0.0000e+00 0.0000e+00
       11 -1    0    0    0    0 -6.1345629676e-20 +1.6314985790e-20 -4.5102765706e-17 5.1100000000e-04 5.1099893000e-04 0.0000e+00 1.0000e+00
       50  1    1    2    0    0 +5.3530872158e-03 -1.3174259228e-02 +3.1693851999e-01 3.1729667167e-01 4.9935713700e-03 0.0000e+00 0.0000e+00
       11  1    1    2    0    0 -4.1813278981e-03 +1.2862627630e-02 +5.4456679417e-01 5.4473496778e-01 5.1099893000e-04 0.0000e+00 1.0000e+00
<vert_displacement>
39.618412155230132
</vert_displacement>
</event>
<event>
 4   1200 +8.6263000e+09 1.99428300e-02 7.81665300e-03            nan
       50 -1    0    0    0    0 +4.5218362700e-03 +4.0969858119e-03 +1.6422631058e+00 1.6422820332e+00 4.9935713700e-03 0.0000e+00 0.0000e+00
       11 -1    0    0    0    0 +4.3942744937e-19 +3.9814091398e-19 +1.5959345821e-16 5.1100000000e-04 5.1099893000e-04 0.0000e+00 1.0000e+00
       50  1    1    2    0    0 +2.2018630205e-02 +5.9921376031e-03 +1.0866084717e+00 1.0868595274e+00 4.9935713700e-03 0.0000e+00 0.0000e+00
       11  1    1    2    0    0 -1.7496793935e-02 -1.8951517913e-03 +5.5565463413e-01 5.5593350587e-01 5.1099893000e-04 0.0000e+00 1.0000e+00
<vert_displacement>
420.30767636794047
</vert_displacement>
</event>
<event>
 4   1200 +8.6263000e+09 1.36009800e-02 7.81665300e-03            nan
       50 -1    0    0    0    0 +6.6967428663e-04 -2.7737377960e-03 +1.6646150549e+00 1.6646249904e+00 4.9935713700e-03 0.0000e+00 0.0000e+00
       11 -1    0    0    0    0 -9.7702901013e-21 +4.0467766903e-20 -2.4286092983e-17 5.1100000000e-04 5.1099893000e-04 0.0000e+00 1.0000e+00
       50  1    1    2    0    0 +5.3577573627e-03 -1.4203478260e-02 +1.4891886235e+00 1.4892743657e+00 4.9935713700e-03 0.0000e+00 0.0000e+00
       11  1    1    2    0    0 -4.6880830761e-03 +1.1429740464e-02 +1.7542643141e-01 1.7586162472e-01 5.1099893000e-04 0.0000e+00 1.0000e+00
<vert_displacement>
118.26991529579550
</vert_displacement>
</event>
<event>
 4   1200 +8.6263000e+09 5.72121100e-03 7.81665300e-03            nan
       50 -1    0    0    0    0 +8.8667907687e-03 -3.1884680824e-03 +3.3772494116e+00 3.3772662480e+00 4.9935713700e-03 0.0000e+00 0.0000e+00
       11 -1    0    0    0    0 +5.9207298220e-19 -2.1290744932e-19 +2.2551317415e-16 5.1100000000e-04 5.1099893000e-04 0.0000e+00 1.0000e+00
       50  1    1    2    0    0 +1.1156434830e-02 -1.6122773193e-03 +3.3695975837e+00 3.3696201384e+00 4.9935713700e-03 0.0000e+00 0.0000e+00
       11  1    1    2    0    0 -2.2896440616e-03 -1.5761907631e-03 +7.6518279107e-03 8.1571096309e-03 5.1099893000e-04 0.0000e+00 1.0000e+00
<vert_displacement>
120.50396912090754
</vert_displacement>
</event>
<event>
 4   1200 +8.6263000e+09 1.31563200e-02 7.81665300e-03            nan
       50 -1    0    0    0    0 -8.2865943431e-03 -1.0971491219e-02 +1.2579722266e+01 1.2579730771e+01 4.9935713700e-03 0.0000e+00 0.0000e+00
       11 -1    0    0    0    0 -3.0624557112e-19 -4.0547062584e-19 +4.6490561388e-16 5.1100000000e-04 5.1099893000e-04 0.0000e+00 1.0000e+00
       50  1    1    2    0    0 -8.2458534326e-03 +1.3281164285e-03 +1.2433049631e+01 1.2433053439e+01 4.9935713700e-03 0.0000e+00 0.0000e+00
       11  1    1    2    0    0 -4.0740910471e-05 -1.2299607647e-02 +1.4667263513e-01 1.4718833182e-01 5.1099893000e-04 0.0000e+00 1.0000e+00
<vert_displacement>
261.93762569632474
</vert_displacement>
</event>
<event>
 4   1200 +8.6263000e+09 5.05597900e-02 7.81665300e-03            nan
       50 -1    0    0    0    0 +6.4952810757e-02 +5.5426587059e-02 +2.2942614457e+01 2.2942773896e+01 4.9935713700e-03 0.0000e+00 0.0000e+00
       11 -1    0    0    0    0 -8.1328473873e-18 -6.9400533787e-18 -2.8726821807e-15 5.1100000000e-04 5.1099893000e-04 0.0000e+00 1.0000e+00
       50  1    1    2    0    0 +1.1365325261e-02 +6.9884624028e-02 +2.0117530557e+01 2.0117655770e+01 4.9935713700e-03 0.0000e+00 0.0000e+00
       11  1    1    2    0    0 +5.3587485496e-02 -1.4458036969e-02 +2.8250838998e+00 2.8256291256e+00 5.1099893000e-04 0.0000e+00 1.0000e+00
<vert_displacement>
193.55893078211324
</vert_displacement>
</event>
<event>
 4   1200 +8.6263000e+09 5.70749100e-02 7.81665300e-03            nan
       50 -1    0    0    0    0 -6.1969068902e-02 -5.5896957041e-02 +3.3643579406e+01 3.3643683283e+01 4.9935713700e-03 0.0000e+00 0.0000e+00
       11 -1    0    0    0    0 +4.0132049099e-18 +3.6199663223e-18 -2.1788059826e-15 5.1100000000e-04 5.1099893000e-04 0.0000e+00 1.0000e+00
       50  1    1    2    0    0 -8.3963957714e-02 -9.9218015599e-02 +3.0108751993e+01 3.0109032958e+01 4.9935713700e-03 0.0000e+00 0.0000e+00
       11  1    1    2    0    0 +2.1994888812e-02 +4.3321058558e-02 +3.5348274136e+00 3.5351613251e+00 5.1099893000e-04 0.0000e+00 1.0000e+00
<vert_displacement>
2.8890064391858497
</vert_displacement>
</event>
<event>
 4   1200 +8.6263000e+09 3.44314700e-02 7.81665300e-03            nan
       50 -1    0    0    0    0 +5.1710153056e-02 +4.4309954494e-02 +2.5130259906e+01 2.5130352668e+01 4.9935713700e-03 0.0000e+00 0.0000e+00
       11 -1    0    0    0    0 -4.8545213192e-18 -4.1597946637e-18 -2.3592152655e-15 5.1100000000e-04 5.1099893000e-04 0.0000e+00 1.0000e+00
       50  1    1    2    0    0 +5.8531977440e-02 +9.4272667588e-03 +2.3938055032e+01 2.3938128969e+01 4.9935713700e-03 0.0000e+00 0.0000e+00
       11  1    1    2    0    0 -6.8218243834e-03 +3.4882687735e-02 +1.1922048742e+00 1.1927346991e+00 5.1099893000e-04 0.0000e+00 1.0000e+00
<vert_displacement>
296.06263259546205
</vert_displacement>
</event>
<event>
 4   1200 +8.6263000e+09 6.17492200e-03 7.81665300e-03            nan
       50 -1    0    0    0    0 -2.8033066113e-02 -1.1685840918e-02 +1.0555357200e+01 1.0555402075e+01 4.9935713700e-03 0.0000e+00 0.0000e+00
       11 -1    0    0    0    0 +1.5479802023e-18 +6.4528975587e-19 -5.8286467516e-16 5.1100000000e-04 5.1099893000e-04 0.0000e+00 1.0000e+00
       50  1    1    2    0    0 -3.1630564545e-02 -1.1731824653e-02 +1.0542421160e+01 1.0542476321e+01 4.9935713700e-03 0.0000e+00 0.0000e+00
       11  1    1    2    0    0 +3.5974984320e-03 +4.5983735105e-05 +1.2936039585e-02 1.3436753682e-02 5.1099893000e-04 0.0000e+00 1.0000e+00
<vert_displacement>
239.50716158972818
</vert_displacement>
</event>
<event>
 4   1200 +8.6263000e+09 1.35569600e-02 7.81665300e-03            nan
       50 -1    0    0    0    0 +1.1918843281e-03 +2.3425957105e-02 +1.8180466309e+01 1.8180482126e+01 4.9935713700e-03 0.0000e+00 0.0000e+00
       11 -1    0    0    0    0 +3.6392254741e-21 +7.1527360367e-20 +5.5511105030e-17 5.1100000000e-04 5.1099893000e-04 0.0000e+00 1.0000e+00
       50  1    1    2    0    0 +1.0000829532e-02 +1.4219671546e-02 +1.8023683232e+01 1.8023692307e+01 4.9935713700e-03 0.0000e+00 0.0000e+00
       11  1    1    2    0    0 -8.8089452037e-03 +9.2062855594e-03 +1.5678307676e-01 1.5730081845e-01 5.1099893000e-04 0.0000e+00 1.0000e+00
<vert_displacement>
34.005003412461456
</vert_displacement>
</event>
<event>
 4   1200 +8.6263000e+09 3.90498100e-02 7.81665300e-03            nan
       50 -1    0    0    0    0 +2.4892835988e-02 +8.4379617356e-04 +1.0305839933e+01 1.0305871240e+01 4.9935713700e-03 0.0000e+00 0.0000e+00
       11 -1    0    0    0    0 -1.1899763012e-18 -4.0336804135e-20 -4.9266002839e-16 5.1100000000e-04 5.1099893000e-04 0.0000e+00 1.0000e+00
       50  1    1    2    0    0 -1.3378258659e-02 -1.7871284777e-02 +8.5322055316e+00 8.5322361975e+00 4.9935713700e-03 0.0000e+00 0.0000e+00
       11  1    1    2    0    0 +3.8271094647e-02 +1.8715080951e-02 +1.7736344014e+00 1.7741460430e+00 5.1099893000e-04 0.0000e+00 1.0000e+00
<vert_displacement>
175.05561275387490
</vert_displacement>
</event>
<event>
 4   1200 +8.6263000e+09 3.93990600e-02 7.81665300e-03            nan
       50 -1    0    0    0    0 +8.5428229870e-02 -4.3818453776e-02 +2.5232634422e+01 2.5232817577e+01 4.9935713700e-03 0.0000e+00 0.0000e+00
       11 -1    0    0    0    0 +7.5175425276e-19 -3.8559512501e-19 +2.2204299754e-16 5.1100000000e-04 5.1099893000e-04 0.0000e+00 1.0000e+00
       50  1    1    2    0    0 +4.0983017021e-02 -3.9335313232e-02 +2.3637299986e+01 2.3637368772e+01 4.9935713700e-03 0.0000e+00 0.0000e+00
       11  1    1    2    0    0 +4.4445212849e-02 -4.4831405444e-03 +1.5953344359e+00 1.5959598050e+00 5.1099893000e-04 0.0000e+00 1.0000e+00
<vert_displacement>
484.19858849396121
</vert_displacement>
</event>
<event>
 4   1200 +8.6263000e+09 1.76357400e-02 7.81665300e-03            nan
       50 -1    0    0    0    0 +2.2369898480e-02 +1.0016606187e-02 +7.5044018007e+00 7.5044434882e+00 4.9935713700e-03 0.0000e+00 0.0000e+00
       11 -1    0    0    0    0 +6.2052190866e-19 +2.7785211430e-19 +2.0816570683e-16 5.1100000000e-04 5.1099893000e-04 0.0000e+00 1.0000e+00
       50  1    1    2    0    0 +2.3332978367e-02 +2.6442346944e-02 +7.2130885326e+00 7.2131764667e+00 4.9935713700e-03 0.0000e+00 0.0000e+00
       11  1    1    2    0    0 -9.6307988734e-04 -1.6425740757e-02 +2.9131326818e-01 2.9177802148e-01 5.1099893000e-04 0.0000e+00 1.0000e+00
<vert_displacement>
250.24130299892408
</vert_displacement>
</event>
<event>
 4   1200 +8.6263000e+09 9.25793100e-03 7.81665300e-03            nan
       50 -1    0    0    0    0 +6.1266565256e-03 +7.2636420376e-03 +3.6553105181e+00 3.6553262804e+00 4.9935713700e-03 0.0000e+00 0.0000e+00
       11 -1    0    0    0    0 +1.1630222865e-19 +1.3788560752e-19 +6.9388704573e-17 5.1100000000e-04 5.1099893000e-04 0.0000e+00 1.0000e+00
       50  1    1    2    0    0 +1.2822235340e-02 +3.3257377989e-03 +3.5948259214e+00 3.5948537955e+00 4.9935713700e-03 0.0000e+00 0.0000e+00
       11  1    1    2    0    0 -6.6955788143e-03 +3.9379042387e-03 +6.0484596759e-02 6.0983484899e-02 5.1099893000e-04 0.0000e+00 1.0000e+00
<vert_displacement>
359.63972736158706
</vert_displacement>
</event>
<event>
 4   1200 +8.6263000e+09 1.25531300e-02 7.81665300e-03            nan
       50 -1    0    0    0    0 +3.2048340598e-02 -1.8052850115e-02 +9.6163224628e+00 9.6163941083e+00 4.9935713700e-03 0.0000e+00 0.0000e+00
       11 -1    0    0    0    0 +1.1100047491e-18 -6.2526636286e-19 +3.3306447083e-16 5.1100000000e-04 5.1099893000e-04 0.0000e+00 1.0000e+00
       50  1    1    2    0    0 +4.0684876864e-02 -2.4897022216e-02 +9.4846774903e+00 9.4847987407e+00 4.9935713700e-03 0.0000e+00 0.0000e+00
       11  1    1    2    0    0 -8.6365362656e-03 +6.8441721016e-03 +1.3164497243e-01 1.3210636751e-01 5.1099893000e-04 0.0000e+00 1.0000e+00
<vert_displacement>
451.99382156571022
</vert_displacement>
</event>
<event>
 4   1200 +8.6263000e+09 5.40822700e-03 7.81665300e-03            nan
       50 -1    0    0    0    0 -1.0636037912e-02 -3.5958150606e-03 +6.3295156328e+00 6.3295275603e+00 4.9935713700e-03 0.0000e+00 0.0000e+00
       11 -1    0    0    0    0 +4.6640044392e-19 +1.5767993254e-19 -2.7755531950e-16 5.1100000000e-04 5.1099893000e-04 0.0000e+00 1.0000e+00
       50  1    1    2    0    0 -1.0305243040e-02 -1.5419826677e-03 +6.3252938652e+00 6.3253044189e+00 4.9935713700e-03 0.0000e+00 0.0000e+00
       11  1    1    2    0    0 -3.3079487248e-04 -2.0538323929e-03 +4.2217676300e-03 4.7341413767e-03 5.1099893000e-04 0.0000e+00 1.0000e+00
<vert_displacement>
318.25902463168751
</vert_displacement>
</event>
<event>
 4   1200 +8.6263000e+09 1.86111300e-02 7.81665300e-03            nan
       50 -1    0    0    0    0 +6.5795237780e-03 +6.3944457903e-03 +2.9086422197e+00 2.9086609766e+00 4.9935713700e-03 0.0000e+00 0.0000e+00
       11 -1    0    0    0    0 +8.2404617341e-19 +8.0086625755e-19 +3.6429011761e-16 5.1100000000e-04 5.1099893000e-04 0.0000e+00 1.0000e+00
       50  1    1    2    0    0 -1.0072529250e-02 +1.4004311443e-02 +2.5493259794e+00 2.5493892330e+00 4.9935713700e-03 0.0000e+00 0.0000e+00
       11  1    1    2    0    0 +1.6652053028e-02 -7.6098656530e-03 +3.5931624032e-01 3.5978274361e-01 5.1099893000e-04 0.0000e+00 1.0000e+00
<vert_displacement>
174.35866910457253
</vert_displacement>
</event>
<event>
 4   1200 +8.6263000e+09 1.15836200e-02 7.81665300e-03            nan
       50 -1    0    0    0    0 +1.5592841465e-02 +5.3343921437e-03 +5.2259125294e+00 5.2259409003e+00 4.9935713700e-03 0.0000e+00 0.0000e+00
       11 -1    0    0    0    0 -1.8840507936e-18 -6.4454357302e-19 -6.3143620553e-16 5.1100000000e-04 5.1099893000e-04 0.0000e+00 1.0000e+00
       50  1    1    2    0    0 +6.5144625351e-03 +1.0935783421e-02 +5.1167377849e+00 5.1167560548e+00 4.9935713700e-03 0.0000e+00 0.0000e+00
       11  1    1    2    0    0 +9.0783789300e-03 -5.6013912773e-03 +1.0917474454e-01 1.0969584548e-01 5.1099893000e-04 0.0000e+00 1.0000e+00
<vert_displacement>
142.76666402019532
</vert_displacement>
</event>
<event>
 4   1200 +8.6263000e+09 6.00694300e-03 7.81665300e-03            nan
       50 -1    0    0    0    0 +1.7468039226e-02 +1.6191389821e-02 +8.2167190640e+00 8.2167551020e+00 4.9935713700e-03 0.0000e+00 0.0000e+00
       11 -1    0    0    0    0 -4.1304005896e-19 -3.8285307926e-19 -1.9428821305e-16 5.1100000000e-04 5.1099893000e-04 0.0000e+00 1.0000e+00
       50  1    1    2    0    0 +2.0479218899e-02 +1.7562683943e-02 +8.2057870262e+00 8.2058328950e+00 4.9935713700e-03 0.0000e+00 0.0000e+00
       11  1    1    2    0    0 -3.0111796737e-03 -1.3712941221e-03 +1.0932037859e-02 1.1433206998e-02 5.1099893000e-04 0.0000e+00 1.0000e+00
<vert_displacement>
57.032154197945971
</vert_displacement>
</event>
<event>
 4   1200 +8.6263000e+09 8.95866400e-03 7.81665300e-03            nan
       50 -1    0    0    0    0 +2.7310557183e-02 -5.0896663195e-03 +1.5471240741e+01 1.5471266489e+01 4.9935713700e-03 0.0000e+00 0.0000e+00
       11 -1    0    0    0    0 -2.7192424914e-18 +5.0676508833e-19 -1.5404319632e-15 5.1100000000e-04 5.1099893000e-04 0.0000e+00 -1.0000e+00
       50  1    1    2    0    0 +2.6381334309e-02 +2.3192436817e-03 +1.5416920875e+01 1.5416944430e+01 4.9935713700e-03 0.0000e+00 0.0000e+00
       11  1    1    2    0    0 +9.2922287365e-04 -7.4089100011e-03 +5.4319865844e-02 5.4833058895e-02 5.1099893000e-04 0.0000e+00 -1.0000e+00
<vert_displacement>
32.948547075740741
</vert_displacement>
</event>
<event>
 4   1200 +8.6263000e+09 7.06552900e-03 7.81665300e-03            nan
       50 -1    0    0    0    0 -2.1220488462e-02 +4.9887090585e-03 +9.3778530069e+00 9.3778796725e+00 4.9935713700e-03 0.0000e+00 0.0000e+00
       11 -1    0    0    0    0 +1.5544480906e-18 -3.6543406080e-19 -6.8694864056e-16 5.1100000000e-04 5.1099893000e-04 0.0000e+00 1.0000e+00
       50  1    1    2    0    0 -2.5451253074e-02 +7.5474400537e-03 +9.3533283472e+00 9.3533673528e+00 4.9935713700e-03 0.0000e+00 0.0000e+00
       11  1    1    2    0    0 +4.2307646127e-03 -2.5587309952e-03 +2.4524659744e-02 2.5023319703e-02 5.1099893000e-04 0.0000e+00 1.0000e+00
<vert_displacement>
76.411543100202977
</vert_displacement>
</event>
<event>
 4   1200 +8.6263000e+09 1.68861800e-02 7.81665300e-03            nan
       50 -1    0    0    0    0 +2.9351625750e-03 +4.5593007209e-03 +1.1698147709e+01 1.1698150031e+01 4.9935713700e-03 0.0000e+00 0.0000e+00
       11 -1    0    0    0    0 +3.6909751558e-19 +5.7333334215e-19 +1.4710453496e-15 5.1100000000e-04 5.1099893000e-04 0.0000e+00 1.0000e+00
       50  1    1    2    0    0 +1.8940884766e-02 +5.8463938187e-03 +1.1437716350e+01 1.1437734618e+01 4.9935713700e-03 0.0000e+00 0.0000e+00
       11  1    1    2    0    0 -1.6005722191e-02 -1.2870930978e-03 +2.6043135862e-01 2.6092641382e-01 5.1099893000e-04 0.0000e+00 1.0000e+00
<vert_displacement>
200.09513858800557
</vert_displacement>
</event>
<event>
 4   1200 +8.6263000e+09 1.22624300e-02 7.81665300e-03            nan
       50 -1    0    0    0    0 +7.1886186787e-02 +6.3576927459e-02 +2.9150689748e+01 2.9150848141e+01 4.9935713700e-03 0.0000e+00 0.0000e+00
       11 -1    0    0    0    0 +8.2818978040e-18 +7.3246007257e-18 +3.3584064505e-15 5.1100000000e-04 5.1099893000e-04 0.0000e+00 1.0000e+00
       50  1    1    2    0    0 +6.8476420346e-02 +5.2547794028e-02 +2.9027466375e+01 2.9027595136e+01 4.9935713700e-03 0.0000e+00 0.0000e+00
       11  1    1    2    0    0 +3.4097664415e-03 +1.1029133431e-02 +1.2322337244e-01 1.2376400497e-01 5.1099893000e-04 0.0000e+00 1.0000e+00
<vert_displacement>
222.04638643106466
</vert_displacement>
</event>
<event>
 4   1200 +8.6263000e+09 5.18056600e-03 7.81665300e-03            nan
       50 -1    0    0    0    0 -9.1145523798e-04 -1.6250332050e-02 +1.0758755330e+01 1.0758768800e+01 4.9935713700e-03 0.0000e+00 0.0000e+00
       11 -1    0    0    0    0 -1.7635359566e-21 -3.1442076015e-20 +2.0816657892e-17 5.1100000000e-04 5.1099893000e-04 0.0000e+00 1.0000e+00
       50  1    1    2    0    0 -1.3776413424e-03 -1.4949435035e-02 +1.0756895293e+01 1.0756906928e+01 4.9935713700e-03 0.0000e+00 0.0000e+00
       11  1    1    2    0    0 +4.6618610440e-04 -1.3008970156e-03 +1.8600371812e-03 2.3728718362e-03 5.1099893000e-04 0.0000e+00 1.0000e+00
<vert_displacement>
249.87596554120063
</vert_displacement>
</event>
<event>
 4   1200 +8.6263000e+09 1.14788600e-02 7.81665300e-03            nan
       50 -1    0    0    0    0 +1.0331999577e-02 -4.2102160288e-03 +7.9530847701e+00 7.9530941634e+00 4.9935713700e-03 0.0000e+00 0.0000e+00
       11 -1    0    0    0    0 +5.5889506842e-19 -2.2774574834e-19 +4.3021099872e-16 5.1100000000e-04 5.1099893000e-04 0.0000e+00 1.0000e+00
       50  1    1    2    0    0 +7.9071945621e-03 +5.9254180439e-03 +7.8471418935e+00 7.8471497033e+00 4.9935713700e-03 0.0000e+00 0.0000e+00
       11  1    1    2    0    0 +2.4248050146e-03 -1.0135634073e-02 +1.0594287663e-01 1.0645546010e-01 5.1099893000e-04 0.0000e+00 1.0000e+00
<vert_displacement>
417.53291444699761
</vert_displacement>
</event>
<event>
 4   1200 +8.6263000e+09 1.30166800e-02 7.81665300e-03            nan
       50 -1    0    0    0    0 +3.9687047902e-02 -2.3767671701e-02 +1.7973114568e+01 1.7973174794e+01 4.9935713700e-03 0.0000e+00 0.0000e+00
       11 -1    0    0    0    0 -2.1450740893e-19 +1.2846361578e-19 -9.7144192884e-17 5.1100000000e-04 5.1099893000e-04 0.0000e+00 1.0000e+00
       50  1    1    2    0    0 +4.6653226985e-02 -3.3144027473e-02 +1.7830563019e+01 1.7830655556e+01 4.9935713700e-03 0.0000e+00 0.0000e+00
       11  1    1    2    0    0 -6.9661790832e-03 +9.3763557713e-03 +1.4255154902e-01 1.4303023788e-01 5.1099893000e-04 0.0000e+00 1.0000e+00
<vert_displacement>
382.48868317871461
</vert_displacement>
</event>
<event>
 4   1200 +8.6263000e+09 2.88402000e-02 7.81665300e-03            nan
       50 -1    0    0    0    0 +1.4783158741e-02 -7.9137487484e-03 +1.3489408929e+01 1.3489420275e+01 4.9935713700e-03 0.0000e+00 0.0000e+00
       11 -1    0    0    0    0 -1.4448335993e-19 +7.7345107960e-20 -1.3183888232e-16 5.1100000000e-04 5.1099893000e-04 0.0000e+00 1.0000e+00
       50  1    1    2    0    0 +3.2885605707e-02 -2.8511291098e-02 +1.2647222496e+01 1.2647298373e+01 4.9935713700e-03 0.0000e+00 0.0000e+00
       11  1    1    2    0    0 -1.8102446966e-02 +2.0597542350e-02 +8.4218643321e-01 8.4263290153e-01 5.1099893000e-04 0.0000e+00 1.0000e+00
<vert_displacement>
351.66097034347126
</vert_displacement>
</event>
<event>
 4   1200 +8.6263000e+09 1.43456400e-02 7.81665300e-03            nan
       50 -1    0    0    0    0 +2.3657604719e-02 +7.3740983695e-02 +3.3364871920e+01 3.3364962170e+01 4.9935713700e-03 0.0000e+00 0.0000e+00
       11 -1    0    0    0    0 +1.3087359219e-18 +4.0793425805e-18 +1.8457408065e-15 5.1100000000e-04 5.1099893000e-04 0.0000e+00 1.0000e+00
       50  1    1    2    0    0 +1.5905625220e-02 +6.2270409369e-02 +3.3186981738e+01 3.3187044345e+01 4.9935713700e-03 0.0000e+00 0.0000e+00
       11  1    1    2    0    0 +7.7519794991e-03 +1.1470574326e-02 +1.7789018280e-01 1.7842882479e-01 5.1099893000e-04 0.0000e+00 1.0000e+00
<vert_displacement>
193.56060013934626
</vert_displacement>
</event>
<event>
 4   1200 +8.6263000e+09 1.02620500e-02 7.81665300e-03            nan
       50 -1    0    0    0    0 +5.5107597406e-02 -3.1797479216e-02 +1.6930614233e+01 1.6930734513e+01 4.9935713700e-03 0.0000e+00 0.0000e+00
       11 -1    0    0    0    0 -2.3940422391e-18 +1.3813795542e-18 -7.3551756045e-16 5.1100000000e-04 5.1099893000e-04 0.0000e+00 1.0000e+00
       50  1    1    2    0    0 +6.2044211504e-02 -3.6999045912e-02 +1.6851565813e+01 1.6851721387e+01 4.9935713700e-03 0.0000e+00 0.0000e+00
       11  1    1    2    0    0 -6.9366140984e-03 +5.2015666956e-03 +7.9048419299e-02 7.9524126055e-02 5.1099893000e-04 0.0000e+00 1.0000e+00
<vert_displacement>
132.68218741186504
</vert_displacement>
</event>
<event>
 4   1200 +8.6263000e+09 2.48851200e-02 7.81665300e-03            nan
       50 -1    0    0    0    0 +3.9975779459e-02 +6.6804131650e-02 +4.7089433478e+01 4.7089498098e+01 4.9935713700e-03 0.0000e+00 0.0000e+00
       11 -1    0    0    0    0 -1.2841614314e-18 -2.1459816540e-18 -1.5126768038e-15 5.1100000000e-04 5.1099893000e-04 0.0000e+00 1.0000e+00
       50  1    1    2    0    0 +5.1317813737e-02 +4.4659024975e-02 +4.6500539598e+01 4.6500589629e+01 4.9935713700e-03 0.0000e+00 0.0000e+00
       11  1    1    2    0    0 -1.1342034278e-02 +2.2145106675e-02 +5.8889388003e-01 5.8941946909e-01 5.1099893000e-04 0.0000e+00 1.0000e+00
<vert_displacement>
376.48717357472344
</vert_displacement>
</event>
<event>
 4   1200 +8.6263000e+09 8.51469200e-03 7.81665300e-03            nan
       50 -1    0    0    0    0 -1.1190674104e-02 +2.5204046819e-03 +5.7415493401e+00 5.7415629705e+00 4.9935713700e-03 0.0000e+00 0.0000e+00
       11 -1    0    0    0    0 +1.2577649149e-18 -2.8327842906e-19 -6.4531584515e-16 5.1100000000e-04 5.1099893000e-04 0.0000e+00 1.0000e+00
       50  1    1    2    0    0 -1.7955139141e-02 +1.7513183609e-03 +5.6946066950e+00 5.6946374600e+00 4.9935713700e-03 0.0000e+00 0.0000e+00
       11  1    1    2    0    0 +6.7644650370e-03 +7.6908632105e-04 +4.6942645151e-02 4.7436510566e-02 5.1099893000e-04 0.0000e+00 1.0000e+00
<vert_displacement>
438.43282343821636
</vert_displacement>
</event>
<event>
 4   1200 +8.6263000e+09 7.36746300e-03 7.81665300e-03            nan
       50 -1    0    0    0    0 +1.0805534077e-02 -2.7641253445e-03 +4.2091210824e+00 4.2091388219e+00 4.9935713700e-03 0.0000e+00 0.0000e+00
       11 -1    0    0    0    0 -1.3894347079e-18 +3.5542636423e-19 -5.4123182435e-16 5.1100000000e-04 5.1099893000e-04 0.0000e+00 1.0000e+00
       50  1    1    2    0    0 +1.2500161731e-02 +2.3749110615e-03 +4.1802046384e+00 4.1802269853e+00 4.9935713700e-03 0.0000e+00 0.0000e+00
       11  1    1    2    0    0 -1.6946276535e-03 -5.1390364060e-03 +2.8916443975e-02 2.9422836541e-02 5.1099893000e-04 0.0000e+00 1.0000e+00
<vert_displacement>
187.03456321847244
</vert_displacement>
</event>
<event>
 4   1200 +8.6263000e+09 9.49110700e-03 7.81665300e-03            nan
       50 -1    0    0    0    0 +8.8275990993e-03 -2.5734364636e-02 +1.9644318732e+01 1.9644338206e+01 4.9935713700e-03 0.0000e+00 0.0000e+00
       11 -1    0    0    0    0 +7.7953473047e-19 -2.2725126928e-18 +1.7347218123e-15 5.1100000000e-04 5.1099893000e-04 0.0000e+00 1.0000e+00
       50  1    1    2    0    0 +1.4947947231e-02 -3.0878776842e-02 +1.9580356060e+01 1.9580386751e+01 4.9935713700e-03 0.0000e+00 0.0000e+00
       11  1    1    2    0    0 -6.1203481320e-03 +5.1444122063e-03 +6.3962672131e-02 6.4462455617e-02 5.1099893000e-04 0.0000e+00 1.0000e+00
<vert_displacement>
429.88758783789405
</vert_displacement>
</event>
<event>
 4   1200 +8.6263000e+09 1.82736600e-02 7.81665300e-03            nan
       50 -1    0    0    0    0 -5.9425839745e-02 +2.9252052270e-02 +2.1108079042e+01 2.1108183552e+01 4.9935713700e-03 0.0000e+00 0.0000e+00
       11 -1    0    0    0    0 +2.7739783619e-18 -1.3654760351e-18 -9.8531808340e-16 5.1100000000e-04 5.1099893000e-04 0.0000e+00 1.0000e+00
       50  1    1    2    0    0 -6.7483837856e-02 +4.3972520316e-02 +2.0801223162e+01 2.0801379704e+01 4.9935713700e-03 0.0000e+00 0.0000e+00
       11  1    1    2    0    0 +8.0579981110e-03 -1.4720468046e-02 +3.0685588003e-01 3.0731484790e-01 5.1099893000e-04 0.0000e+00 1.0000e+00
<vert_displacement>
332.14535918541424
</vert_displacement>
</event>
<event>
 4   1200 +8.6263000e+09 8.11216600e-03 7.81665300e-03            nan
       50 -1    0    0    0    0 +5.2692388033e-02 -4.6049391033e-02 +2.9749832800e+01 2.9749915522e+01 4.9935713700e-03 0.0000e+00 0.0000e+00
       11 -1    0    0    0    0 -1.2535814862e-18 +1.0955408591e-18 -7.0776522015e-16 5.1100000000e-04 5.1099893000e-04 0.0000e+00 1.0000e+00
       50  1    1    2    0    0 +4.8271006139e-02 -4.1302874830e-02 +2.9709801570e+01 2.9709869914e+01 4.9935713700e-03 0.0000e+00 0.0000e+00
       11  1    1    2    0    0 +4.4213818937e-03 -4.7465162026e-03 +4.0031229595e-02 4.0556608545e-02 5.1099893000e-04 0.0000e+00 1.0000e+00
<vert_displacement>
3.6935109846665006
</vert_displacement>
</event>
<event>
 4   1200 +8.6263000e+09 1.16117400e-02 7.81665300e-03            nan
       50 -1    0    0    0    0 -5.8355010079e-02 -3.6722872575e-02 +1.7252159365e+01 1.7252297863e+01 4.9935713700e-03 0.0000e+00 0.0000e+00
       11 -1    0    0    0    0 +8.3554811550e-18 +5.2581135594e-18 -2.4702265026e-15 5.1100000000e-04 5.1099893000e-04 0.0000e+00 1.0000e+00
       50  1    1    2    0    0 -6.4475435277e-02 -2.8257084402e-02 +1.7143941927e+01 1.7144087181e+01 4.9935713700e-03 0.0000e+00 0.0000e+00
       11  1    1    2    0    0 +6.1204251979e-03 -8.4657881730e-03 +1.0821743805e-01 1.0872168225e-01 5.1099893000e-04 0.0000e+00 1.0000e+00
<vert_displacement>
331.43749276271262
</vert_displacement>
</event>
<event>
 4   1200 +8.6263000e+09 1.64243700e-02 7.81665300e-03            nan
       50 -1    0    0    0    0 +1.8869551568e-02 -3.8022550718e-03 +6.5636597682e+00 6.5636898925e+00 4.9935713700e-03 0.0000e+00 0.0000e+00
       11 -1    0    0    0    0 -6.5829087916e-19 +1.3264702263e-19 -2.2898251417e-16 5.1100000000e-04 5.1099893000e-04 0.0000e+00 1.0000e+00
       50  1    1    2    0    0 +9.1470133657e-03 +9.1367538303e-03 +6.3146363916e+00 6.3146516009e+00 4.9935713700e-03 0.0000e+00 0.0000e+00
       11  1    1    2    0    0 +9.7225382027e-03 -1.2939008902e-02 +2.4902337662e-01 2.4954929157e-01 5.1099893000e-04 0.0000e+00 1.0000e+00
<vert_displacement>
281.91130389877623
</vert_displacement>
</event>
<event>
 4   1200 +8.6263000e+09 1.80883100e-02 7.81665300e-03            nan
       50 -1    0    0    0    0 +1.1756874754e-01 -2.0054472996e-02 +4.5426304079e+01 4.5426460921e+01 4.9935713700e-03 0.0000e+00 0.0000e+00
       11 -1    0    0    0    0 -7.7581287937e-18 +1.3233549531e-18 -2.9975918349e-15 5.1100000000e-04 5.1099893000e-04 0.0000e+00 1.0000e+00
       50  1    1    2    0    0 +1.0008711941e-01 -1.5128616111e-02 +4.5128650459e+01 4.5128764259e+01 4.9935713700e-03 0.0000e+00 0.0000e+00
       11  1    1    2    0    0 +1.7481628133e-02 -4.9258568848e-03 +2.9765361988e-01 2.9820766244e-01 5.1099893000e-04 0.0000e+00 1.0000e+00
<vert_displacement>
240.66340424217515
</vert_displacement>
</event>
<event>
 4   1200 +8.6263000e+09 2.33262000e-02 7.81665300e-03            nan
       50 -1    0    0    0    0 -8.9174107460e-03 +3.7148588715e-03 +4.3018867913e+00 4.3019005359e+00 4.9935713700e-03 0.0000e+00 0.0000e+00
       11 -1    0    0    0    0 +9.3493690410e-19 -3.8948061847e-19 -4.5102696657e-16 5.1100000000e-04 5.1099893000e-04 0.0000e+00 1.0000e+00
       50  1    1    2    0    0 -9.8596362277e-03 -1.9476421463e-02 +3.7126870092e+00 3.7127545445e+00 4.9935713700e-03 0.0000e+00 0.0000e+00
       11  1    1    2    0    0 +9.4222548173e-04 +2.3191280335e-02 +5.8919978205e-01 5.8965699144e-01 5.1099893000e-04 0.0000e+00 1.0000e+00
<vert_displacement>
453.99816062503771
</vert_displacement>
</event>
<event>
 4   1200 +8.6263000e+09 5.41610600e-03 7.81665300e-03            nan
       50 -1    0    0    0    0 +3.2986409859e-02 +8.6774257079e-03 +2.3151616903e+01 2.3151642567e+01 4.9935713700e-03 0.0000e+00 0.0000e+00
       11 -1    0    0    0    0 +1.7993468470e-18 +4.7333731238e-19 +1.2628773200e-15 5.1100000000e-04 5.1099893000e-04 0.0000e+00 1.0000e+00
       50  1    1    2    0    0 +3.5040119404e-02 +8.2814899372e-03 +2.3147309458e+01 2.3147338000e+01 4.9935713700e-03 0.0000e+00 0.0000e+00
       11  1    1    2    0    0 -2.0537095445e-03 +3.9593577068e-04 +4.3074450690e-03 4.8155675633e-03 5.1099893000e-04 0.0000e+00 1.0000e+00
<vert_displacement>
56.263995882272518
</vert_displacement>
</event>
<event>
 4   1200 +8.6263000e+09 7.52878700e-03 7.81665300e-03            nan
       50 -1    0    0    0    0 +2.5860732075e-02 -1.0255934627e-02 +9.8906703132e+00 9.8907106995e+00 4.9935713700e-03 0.0000e+00 0.0000e+00
       11 -1    0    0    0    0 +1.0885662586e-18 -4.3170720583e-19 +4.1633198730e-16 5.1100000000e-04 5.1099893000e-04 0.0000e+00 1.0000e+00
       50  1    1    2    0    0 +2.8375203351e-02 -1.5224396241e-02 +9.8594949487e+00 9.8595487987e+00 4.9935713700e-03 0.0000e+00 0.0000e+00
       11  1    1    2    0    0 -2.5144712764e-03 +4.9684616144e-03 +3.1175364531e-02 3.1672900880e-02 5.1099893000e-04 0.0000e+00 1.0000e+00
<vert_displacement>
49.001183485090500
</vert_displacement>
</event>
<event>
 4   1200 +8.6263000e+09 2.18545900e-02 7.81665300e-03            nan
       50 -1    0    0    0    0 +1.3494196447e-02 -2.7432612543e-02 +1.7530774151e+01 1.7530801520e+01 4.9935713700e-03 0.0000e+00 0.0000e+00
       11 -1    0    0    0    0 -2.5637564008e-19 +5.2119098955e-19 -3.3306640093e-16 5.1100000000e-04 5.1099893000e-04 0.0000e+00 -1.0000e+00
       50  1    1    2    0    0 +1.1708356637e-02 -5.4930590567e-03 +1.7076040247e+01 1.7076045874e+01 4.9935713700e-03 0.0000e+00 0.0000e+00
       11  1    1    2    0    0 +1.7858398104e-03 -2.1939553486e-02 +4.5473390492e-01 4.5526664564e-01 5.1099893000e-04 0.0000e+00 -1.0000e+00
<vert_displacement>
308.61448485509271
</vert_displacement>
</event>
<event>
 4   1200 +8.6263000e+09 1.63356100e-02 7.81665300e-03            nan
       50 -1    0    0    0    0 +1.8767579691e-02 -1.9823032301e-03 +6.8354521005e+00 6.8354799762e+00 4.9935713700e-03 0.0000e+00 0.0000e+00
       11 -1    0    0    0    0 +7.0490621607e-19 -7.4454878682e-20 +2.5673809595e-16 5.1100000000e-04 5.1099893000e-04 0.0000e+00 1.0000e+00
       50  1    1    2    0    0 +2.7342211948e-03 +5.4104970690e-04 +6.5899151163e+00 6.5899175977e+00 4.9935713700e-03 0.0000e+00 0.0000e+00
       11  1    1    2    0    0 +1.6033358496e-02 -2.5233529370e-03 +2.4553698414e-01 2.4607337848e-01 5.1099893000e-04 0.0000e+00 1.0000e+00
<vert_displacement>
436.27809861872669
</vert_displacement>
</event>
<event>
 4   1200 +8.6263000e+09 1.82237300e-02 7.81665300e-03            nan
       50 -1    0    0    0    0 +3.1299569098e-02 +2.0411471326e-02 +1.9422975861e+01 1.9423012447e+01 4.9935713700e-03 0.0000e+00 0.0000e+00
       11 -1    0    0    0    0 +5.3001770023e-18 +3.4564185394e-18 +3.2890296238e-15 5.1100000000e-04 5.1099893000e-04 0.0000e+00 1.0000e+00
       50  1    1    2    0    0 +4.6805782082e-02 +1.2933586448e-02 +1.9117586944e+01 1.9117649269e+01 4.9935713700e-03 0.0000e+00 0.0000e+00
       11  1    1    2    0    0 -1.5506212984e-02 +7.4778848778e-03 +3.0538891643e-01 3.0587417805e-01 5.1099893000e-04 0.0000e+00 1.0000e+00
<vert_displacement>
52.349440773942767
</vert_displacement>
</event>
<event>
 4   1200 +8.6263000e+09 3.40840100e-02 7.81665300e-03            nan
       50 -1    0    0    0    0 +9.7528056294e-03 -8.6161120320e-03 +8.6364505148e+00 8.6364617631e+00 4.9935713700e-03 0.0000e+00 0.0000e+00
       11 -1    0    0    0    0 +1.8805949945e-19 -1.6614108570e-19 +1.6653326463e-16 5.1100000000e-04 5.1099893000e-04 0.0000e+00 1.0000e+00
       50  1    1    2    0    0 -1.5565833623e-02 +1.6538401770e-02 +7.3241462782e+00 7.3241831936e+00 4.9935713700e-03 0.0000e+00 0.0000e+00
       11  1    1    2    0    0 +2.5318639253e-02 -2.5154513802e-02 +1.3123042367e+00 1.3127895695e+00 5.1099893000e-04 0.0000e+00 1.0000e+00
<vert_displacement>
62.824998593179302
</vert_displacement>
</event>
<event>
 4   1200 +8.6263000e+09 6.71025600e-03 7.81665300e-03            nan
       50 -1    0    0    0    0 +1.5270050030e-02 +4.7649802048e-02 +3.8057354510e+01 3.8057387732e+01 4.9935713700e-03 0.0000e+00 0.0000e+00
       11 -1    0    0    0    0 -9.2990418615e-19 -2.9017423195e-18 -2.3175885608e-15 5.1100000000e-04 5.1099893000e-04 0.0000e+00 1.0000e+00
       50  1    1    2    0    0 +1.9442766562e-02 +4.9242047321e-02 +3.8037681113e+01 3.8037718283e+01 4.9935713700e-03 0.0000e+00 0.0000e+00
       11  1    1    2    0    0 -4.1727165321e-03 -1.5922452723e-03 +1.9673397235e-02 2.0180448135e-02 5.1099893000e-04 0.0000e+00 1.0000e+00
<vert_displacement>
134.45707855994826
</vert_displacement>
</event>
<event>
 4   1200 +8.6263000e+09 1.05977200e-02 7.81665300e-03            nan
       50 -1    0    0    0    0 +3.8013362758e-02 +1.4530764455e-02 +1.8317322997e+01 1.8317368885e+01 4.9935713700e-03 0.0000e+00 0.0000e+00
       11 -1    0    0    0    0 +3.6576081670e-18 +1.3981357841e-18 +1.7624747018e-15 5.1100000000e-04 5.1099893000e-04 0.0000e+00 1.0000e+00
       50  1    1    2    0    0 +2.8876118486e-02 +1.1795767216e-02 +1.8231443227e+01 1.8231470595e+01 4.9935713700e-03 0.0000e+00 0.0000e+00
       11  1    1    2    0    0 +9.1372442722e-03 +2.7349972390e-03 +8.5879769050e-02 8.6409289401e-02 5.1099893000e-04 0.0000e+00 1.0000e+00
<vert_displacement>
143.72062390668827
</vert_displacement>
</event>
<event>
 4   1200 +8.6263000e+09 3.66185200e-02 7.81665300e-03            nan
       50 -1    0    0    0    0 -4.7097372525e-02 +1.0559228302e-02 +1.4939667059e+01 1.4939745862e+01 4.9935713700e-03 0.0000e+00 0.0000e+00
       11 -1    0    0    0    0 -4.5062051677e-18 +1.0102909481e-18 +1.4294046843e-15 5.1100000000e-04 5.1099893000e-04 0.0000e+00 1.0000e+00
       50  1    1    2    0    0 -4.7036900552e-02 -2.6452198920e-02 +1.3516123544e+01 1.3516232196e+01 4.9935713700e-03 0.0000e+00 0.0000e+00
       11  1    1    2    0    0 -6.0471973175e-05 +3.7011427223e-02 +1.4235435145e+00 1.4240246656e+00 5.1099893000e-04 0.0000e+00 1.0000e+00
<vert_displacement>
29.062420928792744
</vert_displacement>
</event>
<event>
 4   1200 +8.6263000e+09 6.63302800e-03 7.81665300e-03            nan
       50 -1    0    0    0    0 +2.7009903076e-03 -1.2659565394e-02 +1.7357640667e+01 1.7357646212e+01 4.9935713700e-03 0.0000e+00 0.0000e+00
       11 -1    0    0    0    0 -1.7707869253e-19 +8.2996939371e-19 -1.1379782838e-15 5.1100000000e-04 5.1099893000e-04 0.0000e+00 1.0000e+00
       50  1    1    2    0    0 +3.2726325964e-03 -8.3179926842e-03 +1.7338972092e+01 1.7338975115e+01 4.9935713700e-03 0.0000e+00 0.0000e+00
       11  1    1    2    0    0 -5.7164228881e-04 -4.3415727098e-03 +1.8668575058e-02 1.9182096942e-02 5.1099893000e-04 0.0000e+00 1.0000e+00
<vert_displacement>
377.77738347295661
</vert_displacement>
</event>
<event>
 4   1200 +8.6263000e+09 1.05767500e-02 7.81665300e-03            nan
       50 -1    0    0    0    0 -1.1860194308e-02 -1.1972019007e-02 +1.5400602193e+01 1.5400612223e+01 4.9935713700e-03 0.0000e+00 0.0000e+00
       11 -1    0    0    0    0 -1.0366826217e-18 -1.0464570588e-18 +1.3461446114e-15 5.1100000000e-04 5.1099893000e-04 0.0000e+00 1.0000e+00
       50  1    1    2    0    0 -2.0808767719e-02 -9.5240059711e-03 +1.5315057881e+01 1.5315075793e+01 4.9935713700e-03 0.0000e+00 0.0000e+00
       11  1    1    2    0    0 +8.9485734111e-03 -2.4480130359e-03 +8.5544312464e-02 8.6047430228e-02 5.1099893000e-04 0.0000e+00 1.0000e+00
<vert_displacement>
51.295251561889479
</vert_displacement>
</event>
<event>
 4   1200 +8.6263000e+09 1.23001300e-02 7.81665300e-03            nan
       50 -1    0    0    0    0 +2.8282511275e-02 +2.4184250038e-02 +1.0796153358e+01 1.0796218646e+01 4.9935713700e-03 0.0000e+00 0.0000e+00
       11 -1    0    0    0    0 +3.6355204078e-19 +3.1087173875e-19 +1.3877705370e-16 5.1100000000e-04 5.1099893000e-04 0.0000e+00 1.0000e+00
       50  1    1    2    0    0 +2.2156258016e-02 +3.3533896420e-02 +1.0671051609e+01 1.0671128469e+01 4.9935713700e-03 0.0000e+00 0.0000e+00
       11  1    1    2    0    0 +6.1262532587e-03 -9.3496463816e-03 +1.2510174866e-01 1.2560117637e-01 5.1099893000e-04 0.0000e+00 1.0000e+00
<vert_displacement>
313.24730627262051
</vert_displacement>
</event>
<event>
 4   1200 +8.6263000e+09 9.12422500e-03 7.81665300e-03            nan
       50 -1    0    0    0    0 +4.7819988316e-04 +8.0632847060e-03 +4.5325855954e+00 4.5325955435e+00 4.9935713700e-03 0.0000e+00 0.0000e+00
       11 -1    0    0    0    0 +4.2460099007e-20 +7.1595138140e-19 +4.0245520736e-16 5.1100000000e-04 5.1099893000e-04 0.0000e+00 1.0000e+00
       50  1    1    2    0    0 -7.0436674847e-03 +9.3128312488e-03 +4.4747760113e+00 4.4747940321e+00 4.9935713700e-03 0.0000e+00 0.0000e+00
       11  1    1    2    0    0 +7.5218673679e-03 -1.2495465428e-03 +5.7809584109e-02 5.8312511437e-02 5.1099893000e-04 0.0000e+00 1.0000e+00
<vert_displacement>
257.52063754380754
</vert_displacement>
</event>
<event>
 4   1200 +8.6263000e+09 1.10663300e-02 7.81665300e-03            nan
       50 -1    0    0    0    0 +6.9946883540e-02 +4.7585550002e-02 +2.1638176417e+01 2.1638342370e+01 4.9935713700e-03 0.0000e+00 0.0000e+00
       11 -1    0    0    0    0 +2.9159360312e-18 +1.9837398437e-18 +9.0204931328e-16 5.1100000000e-04 5.1099893000e-04 0.0000e+00 1.0000e+00
       50  1    1    2    0    0 +6.0062746379e-02 +4.9795566182e-02 +2.1542347012e+01 2.1542488873e+01 4.9935713700e-03 0.0000e+00 0.0000e+00
       11  1    1    2    0    0 +9.8841371614e-03 -2.2100161794e-03 +9.5829404773e-02 9.6364496978e-02 5.1099893000e-04 0.0000e+00 1.0000e+00
<vert_displacement>
121.61913332793722
</vert_displacement>
</event>
<event>
 4   1200 +8.6263000e+09 9.98678400e-03 7.81665300e-03            nan
       50 -1    0    0    0    0 +2.3418370719e-03 +2.0931590250e-02 +1.0287682556e+01 1.0287705329e+01 4.9935713700e-03 0.0000e+00 0.0000e+00
       11 -1    0    0    0    0 +2.4640700904e-19 +2.2024122044e-18 +1.0824651804e-15 5.1100000000e-04 5.1099893000e-04 0.0000e+00 1.0000e+00
       50  1    1    2    0    0 +1.0967852981e-02 +2.0462005572e-02 +1.0213958287e+01 1.0213985893e+01 4.9935713700e-03 0.0000e+00 0.0000e+00
       11  1    1    2    0    0 -8.6260159090e-03 +4.6958467842e-04 +7.3724268668e-02 7.4230435609e-02 5.1099893000e-04 0.0000e+00 1.0000e+00
<vert_displacement>
243.32423839006162
</vert_displacement>
</event>
<event>
 4   1200 +8.6263000e+09 1.00008000e-02 7.81665300e-03            nan
       50 -1    0    0    0    0 +4.2339720535e-03 +1.1496531000e-03 +1.3086252301e+00 1.3086421118e+00 4.9935713700e-03 0.0000e+00 0.0000e+00
       11 -1    0    0    0    0 -3.3675322495e-20 -9.1438815394e-21 -1.0408282362e-17 5.1100000000e-04 5.1099893000e-04 0.0000e+00 1.0000e+00
       50  1    1    2    0    0 +7.1255116588e-03 +9.1549711689e-03 +1.2303486141e+00 1.2304134404e+00 4.9935713700e-03 0.0000e+00 0.0000e+00
       11  1    1    2    0    0 -2.8915396053e-03 -8.0053180689e-03 +7.8276615966e-02 7.8739671358e-02 5.1099893000e-04 0.0000e+00 1.0000e+00
<vert_displacement>
100.62725023748668
</vert_displacement>
</event>
<event>
 4   1200 +8.6263000e+09 1.05002000e-02 7.81665300e-03            nan
       50 -1    0    0    0    0 +2.5182265138e-02 +1.2759367925e-03 +8.3000664950e+00 8.3001062964e+00 4.9935713700e-03 0.0000e+00 0.0000e+00
       11 -1    0    0    0    0 +1.5368246713e-18 +7.7867941223e-20 +5.0653691766e-16 5.1100000000e-04 5.1099893000e-04 0.0000e+00 1.0000e+00
       50  1    1    2    0    0 +1.5734124336e-02 +2.1687765961e-03 +8.2157479964e+00 8.2157648665e+00 4.9935713700e-03 0.0000e+00 0.0000e+00
       11  1    1    2    0    0 +9.4481408025e-03 -8.9283980358e-04 +8.4318498685e-02 8.4852429947e-02 5.1099893000e-04 0.0000e+00 1.0000e+00
<vert_displacement>
472.44382347968195
</vert_displacement>
</event>
<event>
 4   1200 +8.6263000e+09 4.19943900e-02 7.81665300e-03            nan
       50 -1    0    0    0    0 -3.5963587320e-02 +2.9659374865e-02 +1.2146764529e+01 1.2146855005e+01 4.9935713700e-03 0.0000e+00 0.0000e+00
       11 -1    0    0    0    0 -2.6707472769e-18 +2.2025804586e-18 +9.0204956474e-16 5.1100000000e-04 5.1099893000e-04 0.0000e+00 1.0000e+00
       50  1    1    2    0    0 -4.9574483301e-02 +6.1425984378e-02 +1.0099801346e+01 1.0100111037e+01 4.9935713700e-03 0.0000e+00 0.0000e+00
       11  1    1    2    0    0 +1.3610895981e-02 -3.1766609513e-02 +2.0469631828e+00 2.0472549687e+00 5.1099893000e-04 0.0000e+00 1.0000e+00
<vert_displacement>
451.25789951962878
</vert_displacement>
</event>
<event>
 4   1200 +8.6263000e+09 2.40843800e-02 7.81665300e-03            nan
       50 -1    0    0    0    0 -1.2597924829e-02 -3.0931242426e-02 +1.3097005456e+01 1.3097048992e+01 4.9935713700e-03 0.0000e+00 0.0000e+00
       11 -1    0    0    0    0 -3.6042059483e-19 -8.8492802942e-19 +3.7469905250e-16 5.1100000000e-04 5.1099893000e-04 0.0000e+00 1.0000e+00
       50  1    1    2    0    0 -3.5294548132e-02 -2.5731131473e-02 +1.2529134290e+01 1.2529211420e+01 4.9935713700e-03 0.0000e+00 0.0000e+00
       11  1    1    2    0    0 +2.2696623303e-02 -5.2001109527e-03 +5.6787116591e-01 5.6834857267e-01 5.1099893000e-04 0.0000e+00 1.0000e+00
<vert_displacement>
328.71585675507936
</vert_displacement>
</event>
<event>
 4   1200 +8.6263000e+09 1.36348600e-02 7.81665300e-03            nan
       50 -1    0    0    0    0 +4.4162031701e-02 -1.5066958017e-02 +1.3264288124e+01 1.3264371138e+01 4.9935713700e-03 0.0000e+00 0.0000e+00
       11 -1    0    0    0    0 -9.4718871440e-19 +3.2315661314e-19 -2.8449288975e-16 5.1100000000e-04 5.1099893000e-04 0.0000e+00 1.0000e+00
       50  1    1    2    0    0 +5.1186318330e-02 -2.5078639801e-02 +1.3104817875e+01 1.3104942787e+01 4.9935713700e-03 0.0000e+00 0.0000e+00
       11  1    1    2    0    0 -7.0242866292e-03 +1.0011681784e-02 +1.5947024941e-01 1.5993935082e-01 5.1099893000e-04 0.0000e+00 1.0000e+00
<vert_displacement>
193.56690907649278
</vert_displacement>
</event>
<event>
 4   1200 +8.6263000e+09 2.45636200e-02 7.81665300e-03            nan
       50 -1    0    0    0    0 -4.5957616940e-03 +5.7303471085e-03 +4.0422072400e+00 4.0422169987e+00 4.9935713700e-03 0.0000e+00 0.0000e+00
       11 -1    0    0    0    0 +3.6289943085e-19 -4.5249076057e-19 -3.1918859255e-16 5.1100000000e-04 5.1099893000e-04 0.0000e+00 1.0000e+00
       50  1    1    2    0    0 -1.7006472296e-02 -1.5350009068e-02 +3.3605098011e+00 3.3605916000e+00 4.9935713700e-03 0.0000e+00 0.0000e+00
       11  1    1    2    0    0 +1.2410710602e-02 +2.1080356177e-02 +6.8169743892e-01 6.8213639875e-01 5.1099893000e-04 0.0000e+00 1.0000e+00
<vert_displacement>
91.229365897797464
</vert_displacement>
</event>
<event>
 4   1200 +8.6263000e+09 1.48424000e-02 7.81665300e-03            nan
       50 -1    0    0    0    0 +9.3806829774e-03 -7.0233034311e-03 +5.2340676027e+00 5.2340831031e+00 4.9935713700e-03 0.0000e+00 0.0000e+00
       11 -1    0    0    0    0 -9.4514378399e-19 +7.0762774918e-19 -5.2735461498e-16 5.1100000000e-04 5.1099893000e-04 0.0000e+00 1.0000e+00
       50  1    1    2    0    0 +1.8528163782e-02 +3.4923348383e-03 +5.0353081467e+00 5.0353459223e+00 4.9935713700e-03 0.0000e+00 0.0000e+00
       11  1    1    2    0    0 -9.1474808051e-03 -1.0515638269e-02 +1.9875945602e-01 1.9924818075e-01 5.1099893000e-04 0.0000e+00 1.0000e+00
<vert_displacement>
72.415488660435585
</vert_displacement>
</event>
<event>
 4   1200 +8.6263000e+09 2.16082100e-02 7.81665300e-03            nan
       50 -1    0    0    0    0 +7.9074419952e-03 -1.4180131816e-03 +3.1886713084e+00 3.1886853383e+00 4.9935713700e-03 0.0000e+00 0.0000e+00
       11 -1    0    0    0    0 +1.0840658887e-18 -1.9440164353e-19 +4.3714892856e-16 5.1100000000e-04 5.1099893000e-04 0.0000e+00 1.0000e+00
       50  1    1    2    0    0 -6.0010097680e-03 -1.7997408697e-02 +2.6717063726e+00 2.6717783958e+00 4.9935713700e-03 0.0000e+00 0.0000e+00
       11  1    1    2    0    0 +1.3908451763e-02 +1.6579395516e-02 +5.1696493576e-01 5.1741794259e-01 5.1099893000e-04 0.0000e+00 1.0000e+00
<vert_displacement>
315.31964477847600
</vert_displacement>
</event>
<event>
 4   1200 +8.6263000e+09 1.04506200e-02 7.81665300e-03            nan
       50 -1    0    0    0    0 -1.8696727220e-02 +2.4517433876e-02 +1.0436249746e+01 1.0436296487e+01 4.9935713700e-03 0.0000e+00 0.0000e+00
       11 -1    0    0    0    0 +2.6105305196e-19 -3.4232466805e-19 -1.4571613604e-16 5.1100000000e-04 5.1099893000e-04 0.0000e+00 1.0000e+00
       50  1    1    2    0    0 -1.6922473917e-02 +3.3357495418e-02 +1.0353098466e+01 1.0353167239e+01 4.9935713700e-03 0.0000e+00 0.0000e+00
       11  1    1    2    0    0 -1.7742533034e-03 -8.8400615418e-03 +8.3151279521e-02 8.3640247900e-02 5.1099893000e-04 0.0000e+00 1.0000e+00
<vert_displacement>
34.823390827411757
</vert_displacement>
</event>
<event>
 4   1200 +8.6263000e+09 1.47469100e-02 7.81665300e-03            nan
       50 -1    0    0    0    0 -5.6287055236e-03 -2.3958993371e-03 +2.4627642542e+00 2.4627769144e+00 4.9935713700e-03 0.0000e+00 0.0000e+00
       11 -1    0    0    0    0 -1.9823695004e-19 -8.4380995809e-20 +8.6735906217e-17 5.1100000000e-04 5.1099893000e-04 0.0000e+00 1.0000e+00
       50  1    1    2    0    0 -1.2262770432e-02 -1.4114676679e-02 +2.2569410532e+00 2.2570240258e+00 4.9935713700e-03 0.0000e+00 0.0000e+00
       11  1    1    2    0    0 +6.6340649081e-03 +1.1718777342e-02 +2.0582320093e-01 2.0626388855e-01 5.1099893000e-04 0.0000e+00 1.0000e+00
<vert_displacement>
461.14408182267817
</vert_displacement>
</event>
<event>
 4   1200 +8.6263000e+09 5.41823000e-02 7.81665300e-03            nan
       50 -1    0    0    0    0 +4.9770103819e-02 +1.7627480888e-02 +1.6141015622e+01 1.6141102751e+01 4.9935713700e-03 0.0000e+00 0.0000e+00
       11 -1    0    0    0    0 -3.0381831923e-18 -1.0760579554e-18 -9.8531766274e-16 5.1100000000e-04 5.1099893000e-04 0.0000e+00 1.0000e+00
       50  1    1    2    0    0 +8.7959639775e-02 +3.4854328871e-02 +1.2445236529e+01 1.2445597171e+01 4.9935713700e-03 0.0000e+00 0.0000e+00
       11  1    1    2    0    0 -3.8189535956e-02 -1.7226847984e-02 +3.6957790923e+00 3.6960165807e+00 5.1099893000e-04 0.0000e+00 1.0000e+00
<vert_displacement>
154.66871161050847
</vert_displacement>
</event>
<event>
 4   1200 +8.6263000e+09 8.75528000e-03 7.81665300e-03            nan
       50 -1    0    0    0    0 -1.9196883177e-02 -2.7107198921e-02 +1.3159527888e+01 1.3159570757e+01 4.9935713700e-03 0.0000e+00 0.0000e+00
       11 -1    0    0    0    0 +2.0244603369e-20 +2.8586645319e-20 -1.3877743599e-17 5.1100000000e-04 5.1099893000e-04 0.0000e+00 1.0000e+00
       50  1    1    2    0    0 -2.4629648640e-02 -3.1627821737e-02 +1.3108706186e+01 1.3108768429e+01 4.9935713700e-03 0.0000e+00 0.0000e+00
       11  1    1    2    0    0 +5.4327654633e-03 +4.5206228154e-03 +5.0821702667e-02 5.1313327246e-02 5.1099893000e-04 0.0000e+00 1.0000e+00
<vert_displacement>
170.92572958256233
</vert_displacement>
</event>
<event>
 4   1200 +8.6263000e+09 1.53011500e-02 7.81665300e-03            nan
       50 -1    0    0    0    0 +1.4604459600e-02 -1.8495535716e-02 +8.9721964571e+00 8.9722287964e+00 4.9935713700e-03 0.0000e+00 0.0000e+00
       11 -1    0    0    0    0 +1.0955878330e-18 -1.3874860453e-18 +6.7307038691e-16 5.1100000000e-04 5.1099893000e-04 0.0000e+00 1.0000e+00
       50  1    1    2    0    0 +9.9480233615e-03 -4.2588464937e-03 +8.7626244861e+00 8.7626325908e+00 4.9935713700e-03 0.0000e+00 0.0000e+00
       11  1    1    2    0    0 +4.6564362384e-03 -1.4236689222e-02 +2.0957197101e-01 2.1010720566e-01 5.1099893000e-04 0.0000e+00 1.0000e+00
<vert_displacement>
136.93607896034692
</vert_displacement>
</event>
<event>
 4   1200 +8.6263000e+09 1.16486600e-02 7.81665300e-03            nan
       50 -1    0    0    0    0 -1.5083674898e-02 +6.2415904599e-03 +7.7186960997e+00 7.7187149766e+00 4.9935713700e-03 0.0000e+00 0.0000e+00
       11 -1    0    0    0    0 +6.2374966982e-19 -2.5810619859e-19 -3.1918840577e-16 5.1100000000e-04 5.1099893000e-04 0.0000e+00 1.0000e+00
       50  1    1    2    0    0 -5.3954216410e-03 +1.5690192768e-03 +7.6087688290e+00 7.6087725424e+00 4.9935713700e-03 0.0000e+00 0.0000e+00
       11  1    1    2    0    0 -9.6882532566e-03 +4.6725711831e-03 +1.0992727067e-01 1.1045343422e-01 5.1099893000e-04 0.0000e+00 1.0000e+00
<vert_displacement>
387.57977138653058
</vert_displacement>
</event>
<event>
 4   1200 +8.6263000e+09 1.15022000e-02 7.81665300e-03            nan
       50 -1    0    0    0    0 -1.1304476487e-04 -1.6291204182e-03 +3.4363546611e+00 3.4363586773e+00 4.9935713700e-03 0.0000e+00 0.0000e+00
       11 -1    0    0    0    0 -1.2554671745e-21 -1.8092896303e-20 +3.8163912162e-17 5.1100000000e-04 5.1099893000e-04 0.0000e+00 1.0000e+00
       50  1    1    2    0    0 +7.6103336836e-03 -8.4892115638e-03 +3.3278311080e+00 3.3278543843e+00 4.9935713700e-03 0.0000e+00 0.0000e+00
       11  1    1    2    0    0 -7.7233784484e-03 +6.8600911455e-03 +1.0852355303e-01 1.0901529300e-01 5.1099893000e-04 0.0000e+00 1.0000e+00
<vert_displacement>
76.674470022739044
</vert_displacement>
</event>
<event>
 4   1200 +8.6263000e+09 2.12489700e-02 7.81665300e-03            nan
       50 -1    0    0    0    0 -4.8234632002e-03 -3.8188407186e-03 +2.8695144350e+00 2.8695253750e+00 4.9935713700e-03 0.0000e+00 0.0000e+00
       11 -1    0    0    0    0 +3.2658620490e-19 +2.5856540117e-19 -1.9428858277e-16 5.1100000000e-04 5.1099893000e-04 0.0000e+00 1.0000e+00
       50  1    1    2    0    0 -2.1851419137e-02 +7.1922567340e-03 +2.3612437745e+00 2.3613611141e+00 4.9935713700e-03 0.0000e+00 0.0000e+00
       11  1    1    2    0    0 +1.7027955937e-02 -1.1011097453e-02 +5.0827066048e-01 5.0867526083e-01 5.1099893000e-04 0.0000e+00 1.0000e+00
<vert_displacement>
319.26338735785481
</vert_displacement>
</event>
<event>
 4   1200 +8.6263000e+09 1.36407300e-02 7.81665300e-03            nan
       50 -1    0    0    0    0 -8.6199545254e-03 -1.7803277081e-03 +1.7460459504e+01 1.7460462437e+01 4.9935713700e-03 0.0000e+00 0.0000e+00
       11 -1    0    0    0    0 +7.7419067685e-19 +1.5989795645e-19 -1.5681898230e-15 5.1100000000e-04 5.1099893000e-04 0.0000e+00 1.0000e+00
       50  1    1    2    0    0 -7.1588817693e-03 +1.0854236014e-02 +1.7301339543e+01 1.7301345150e+01 4.9935713700e-03 0.0000e+00 0.0000e+00
       11  1    1    2    0    0 -1.4610727561e-03 -1.2634563722e-02 +1.5911996100e-01 1.5962828710e-01 5.1099893000e-04 0.0000e+00 1.0000e+00
<vert_displacement>
251.31020162836523
</vert_displacement>
</event>
<event>
 4   1200 +8.6263000e+09 1.64790200e-02 7.81665300e-03            nan
       50 -1    0    0    0    0 +6.1930777078e-03 -2.6120910267e-02 +1.1697866597e+01 1.1697898466e+01 4.9935713700e-03 0.0000e+00 0.0000e+00
       11 -1    0    0    0    0 +9.4410890048e-19 -3.9820239686e-18 +1.7832910375e-15 5.1100000000e-04 5.1099893000e-04 0.0000e+00 1.0000e+00
       50  1    1    2    0    0 -9.0938076679e-03 -2.9682212233e-02 +1.1451335801e+01 1.1451378970e+01 4.9935713700e-03 0.0000e+00 0.0000e+00
       11  1    1    2    0    0 +1.5286885376e-02 +3.5613019661e-03 +2.4653079569e-01 2.4703049625e-01 5.1099893000e-04 0.0000e+00 1.0000e+00
<vert_displacement>
340.97880504456276
</vert_displacement>
</event>
<event>
 4   1200 +8.6263000e+09 5.77933000e-03 7.81665300e-03            nan
       50 -1    0    0    0    0 +2.5406613908e-03 -3.9951059506e-02 +1.7650284835e+01 1.7650330939e+01 4.9935713700e-03 0.0000e+00 0.0000e+00
       11 -1    0    0    0    0 +2.3971512742e-19 -3.7694410420e-18 +1.6653302537e-15 5.1100000000e-04 5.1099893000e-04 0.0000e+00 1.0000e+00
       50  1    1    2    0    0 -1.6660155711e-04 -4.1000983803e-02 +1.7641996012e+01 1.7642044364e+01 4.9935713700e-03 0.0000e+00 0.0000e+00
       11  1    1    2    0    0 +2.7072629479e-03 +1.0499242969e-03 +8.2888234123e-03 8.7975750730e-03 5.1099893000e-04 0.0000e+00 1.0000e+00
<vert_displacement>
159.38390062023095
</vert_displacement>
</event>
<event>
 4   1200 +8.6263000e+09 2.05484400e-02 7.81665300e-03            nan
       50 -1    0    0    0    0 +3.1287029082e-02 +1.1048273275e-02 +9.3444638934e+00 9.3445241362e+00 4.9935713700e-03 0.0000e+00 0.0000e+00
       11 -1    0    0    0    0 -2.1373973778e-18 -7.5477125891e-19 -6.3837421477e-16 5.1100000000e-04 5.1099893000e-04 0.0000e+00 1.0000e+00
       50  1    1    2    0    0 +3.2500900721e-02 +3.0333070899e-02 +8.9379338507e+00 8.9380458077e+00 4.9935713700e-03 0.0000e+00 0.0000e+00
       11  1    1    2    0    0 -1.2138716390e-03 -1.9284797624e-02 +4.0653004262e-01 4.0698932858e-01 5.1099893000e-04 0.0000e+00 1.0000e+00
<vert_displacement>
272.09644188043779
</vert_displacement>
</event>
<event>
 4   1200 +8.6263000e+09 6.74985700e-03 7.81665300e-03            nan
       50 -1    0    0    0    0 +6.8792892487e-03 +3.5681441587e-03 +2.8839917024e+00 2.8840064375e+00 4.9935713700e-03 0.0000e+00 0.0000e+00
       11 -1    0    0    0    0 -5.7930368003e-20 -3.0047276213e-20 -2.4286040985e-17 5.1100000000e-04 5.1099893000e-04 0.0000e+00 1.0000e+00
       50  1    1    2    0    0 +6.6004628265e-03 +8.0786008697e-03 +2.8636577713e+00 2.8636811270e+00 4.9935713700e-03 0.0000e+00 0.0000e+00
       11  1    1    2    0    0 +2.7882642220e-04 -4.5104567110e-03 +2.0333931091e-02 2.0836310553e-02 5.1099893000e-04 0.0000e+00 1.0000e+00
<vert_displacement>
318.19839914394413
</vert_displacement>
</event>
<event>
 4   1200 +8.6263000e+09 1.24225100e-02 7.81665300e-03            nan
       50 -1    0    0    0    0 +1.0965448517e-02 +5.7762367327e-03 +1.0804383075e+01 1.0804391337e+01 4.9935713700e-03 0.0000e+00 0.0000e+00
       11 -1    0    0    0    0 +3.9437049426e-19 +2.0774137343e-19 +3.8857780296e-16 5.1100000000e-04 5.1099893000e-04 0.0000e+00 1.0000e+00
       50  1    1    2    0    0 +8.4617802126e-03 +1.6831985330e-02 +1.0676252930e+01 1.0676270720e+01 4.9935713700e-03 0.0000e+00 0.0000e+00
       11  1    1    2    0    0 +2.5036683048e-03 -1.1055748597e-02 +1.2813014453e-01 1.2863161738e-01 5.1099893000e-04 0.0000e+00 1.0000e+00
<vert_displacement>
221.39182351611007
</vert_displacement>
</event>
<event>
 4   1200 +8.6263000e+09 2.30542300e-02 7.81665300e-03            nan
       50 -1    0    0    0    0 -3.8523895087e-02 +2.5238009680e-03 +2.2537372116e+01 2.2537405736e+01 4.9935713700e-03 0.0000e+00 0.0000e+00
       11 -1    0    0    0    0 +1.9926260688e-18 -1.3054213729e-19 -1.1657324655e-15 5.1100000000e-04 5.1099893000e-04 0.0000e+00 1.0000e+00
       50  1    1    2    0    0 -1.8444448316e-02 -9.2562093168e-03 +2.2030316964e+01 2.2030327195e+01 4.9935713700e-03 0.0000e+00 0.0000e+00
       11  1    1    2    0    0 -2.0079446771e-02 +1.1780010285e-02 +5.0705515219e-01 5.0758954018e-01 5.1099893000e-04 0.0000e+00 1.0000e+00
<vert_displacement>
20.313028246672516
</vert_displacement>
</event>
<event>
 4   1200 +8.6263000e+09 6.60971600e-03 7.81665300e-03            nan
       50 -1    0    0    0    0 -2.6392426183e-03 -1.8939985080e-04 +1.4611433708e+00 1.4611542996e+00 4.9935713700e-03 0.0000e+00 0.0000e+00
       11 -1    0    0    0    0 -1.8800408145e-20 -1.3491728547e-21 +1.0408323789e-17 5.1100000000e-04 5.1099893000e-04 0.0000e+00 1.0000e+00
       50  1    1    2    0    0 +1.6376549210e-03 -1.0512094962e-03 +1.4425549307e+00 1.4425648861e+00 4.9935713700e-03 0.0000e+00 0.0000e+00
       11  1    1    2    0    0 -4.2768975394e-03 +8.6180964543e-04 +1.8588440116e-02 1.9100413459e-02 5.1099893000e-04 0.0000e+00 1.0000e+00
<vert_displacement>
204.07099211332311
</vert_displacement>
</event>
<event>
 4   1200 +8.6263000e+09 7.54251400e-03 7.81665300e-03            nan
       50 -1    0    0    0    0 -4.1105254868e-02 +2.0492639170e-02 +1.6063442868e+01 1.6063509309e+01 4.9935713700e-03 0.0000e+00 0.0000e+00
       11 -1    0    0    0    0 -3.9063384195e-18 +1.9474683703e-18 +1.5265504186e-15 5.1100000000e-04 5.1099893000e-04 0.0000e+00 1.0000e+00
       50  1    1    2    0    0 -4.6320281486e-02 +2.2431168227e-02 +1.6032098820e+01 1.6032182204e+01 4.9935713700e-03 0.0000e+00 0.0000e+00
       11  1    1    2    0    0 +5.2150266184e-03 -1.9385290568e-03 +3.1344048654e-02 3.1838104583e-02 5.1099893000e-04 0.0000e+00 1.0000e+00
<vert_displacement>
129.44687173861826
</vert_displacement>
</event>
<event>
 4   1200 +8.6263000e+09 9.36921000e-03 7.81665300e-03            nan
       50 -1    0    0    0    0 -1.2614480322e-02 +7.5890313756e-03 +5.5305985167e+00 5.5306203637e+00 4.9935713700e-03 0.0000e+00 0.0000e+00
       11 -1    0    0    0    0 +3.4818384769e-19 -2.0947181945e-19 -1.5265512509e-16 5.1100000000e-04 5.1099893000e-04 0.0000e+00 1.0000e+00
       50  1    1    2    0    0 -1.6061705879e-02 +1.4572228705e-02 +5.4683790354e+00 5.4684243196e+00 4.9935713700e-03 0.0000e+00 0.0000e+00
       11  1    1    2    0    0 +3.4472255562e-03 -6.9831973294e-03 +6.2219481261e-02 6.2707044080e-02 5.1099893000e-04 0.0000e+00 1.0000e+00
<vert_displacement>
298.57651864144680
</vert_displacement>
</event>
<event>
 4   1200 +8.6263000e+09 1.07764600e-02 7.81665300e-03            nan
       50 -1    0    0    0    0 -8.5866959836e-03 -4.5200587740e-03 +2.7934198036e+00 2.7934411211e+00 4.9935713700e-03 0.0000e+00 0.0000e+00
       11 -1    0    0    0    0 +1.1624492675e-18 +6.1191627383e-19 -3.7816743607e-16 5.1100000000e-04 5.1099893000e-04 0.0000e+00 1.0000e+00
       50  1    1    2    0    0 -1.1557340183e-02 -1.3348657956e-02 +2.7010681176e+00 2.7011304431e+00 4.9935713700e-03 0.0000e+00 0.0000e+00
       11  1    1    2    0    0 +2.9706441999e-03 +8.8285991815e-03 +9.2351685947e-02 9.2821678004e-02 5.1099893000e-04 0.0000e+00 1.0000e+00
<vert_displacement>
473.95643452059011
</vert_displacement>
</event>
<event>
 4   1200 +8.6263000e+09 9.14133800e-03 7.81665300e-03            nan
       50 -1    0    0    0    0 +2.0076227352e-02 -1.6246163975e-02 +1.1357363704e+01 1.1357394166e+01 4.9935713700e-03 0.0000e+00 0.0000e+00
       11 -1    0    0    0    0 +1.4718886007e-19 -1.1910875056e-19 +8.3266511566e-17 5.1100000000e-04 5.1099893000e-04 0.0000e+00 1.0000e+00
       50  1    1    2    0    0 +2.5770896035e-02 -2.1166426437e-02 +1.1299684246e+01 1.1299734561e+01 4.9935713700e-03 0.0000e+00 0.0000e+00
       11  1    1    2    0    0 -5.6946686829e-03 +4.9202624625e-03 +5.7679458249e-02 5.8170604758e-02 5.1099893000e-04 0.0000e+00 1.0000e+00
<vert_displacement>
420.82776153237131
</vert_displacement>
</event>
<event>
 4   1200 +8.6263000e+09 1.09951500e-02 7.81665300e-03            nan
       50 -1    0    0    0    0 -4.0867542974e-02 -2.0331287056e-02 +1.3838470350e+01 1.3838546531e+01 4.9935713700e-03 0.0000e+00 0.0000e+00
       11 -1    0    0    0    0 +3.6885088528e-19 +1.8350046721e-19 -1.2489941083e-16 5.1100000000e-04 5.1099893000e-04 0.0000e+00 1.0000e+00
       50  1    1    2    0    0 -3.7749387132e-02 -1.0817027616e-02 +1.3743950614e+01 1.3744007620e+01 4.9935713700e-03 0.0000e+00 0.0000e+00
       11  1    1    2    0    0 -3.1181558418e-03 -9.5142594405e-03 +9.4519736151e-02 9.5049911471e-02 5.1099893000e-04 0.0000e+00 1.0000e+00
<vert_displacement>
203.17358033456631
</vert_displacement>
</event>
<event>
 4   1200 +8.6263000e+09 5.93927900e-03 7.81665300e-03            nan
       50 -1    0    0    0    0 +3.5745978138e-02 -4.7742822249e-02 +1.8300532585e+01 1.8300630453e+01 4.9935713700e-03 0.0000e+00 0.0000e+00
       11 -1    0    0    0    0 +8.6742387473e-19 -1.1585433109e-18 +4.4408685148e-16 5.1100000000e-04 5.1099893000e-04 0.0000e+00 1.0000e+00
       50  1    1    2    0    0 +3.5941221439e-02 -4.4508145580e-02 +1.8290417985e+01 1.8290508133e+01 4.9935713700e-03 0.0000e+00 0.0000e+00
       11  1    1    2    0    0 -1.9524330096e-04 -3.2346766688e-03 +1.0114600131e-02 1.0633320686e-02 5.1099893000e-04 0.0000e+00 1.0000e+00
<vert_displacement>
54.752194678007065
</vert_displacement>
</event>
<event>
 4   1200 +8.6263000e+09 1.41595900e-02 7.81665300e-03            nan
       50 -1    0    0    0    0 +2.9796249665e-02 +1.2513030706e-02 +1.4499440881e+01 1.4499477755e+01 4.9935713700e-03 0.0000e+00 0.0000e+00
       11 -1    0    0    0    0 +1.4829716776e-18 +6.2277871704e-19 +7.2164317353e-16 5.1100000000e-04 5.1099893000e-04 0.0000e+00 1.0000e+00
       50  1    1    2    0    0 +4.2687853476e-02 +1.2517328122e-02 +1.4325540268e+01 1.4325610209e+01 4.9935713700e-03 0.0000e+00 0.0000e+00
       11  1    1    2    0    0 -1.2891603811e-02 -4.2974155048e-06 +1.7390061217e-01 1.7437854656e-01 5.1099893000e-04 0.0000e+00 1.0000e+00
<vert_displacement>
472.38675865734263
</vert_displacement>
</event>
<event>
 4   1200 +8.6263000e+09 2.02284400e-02 7.81665300e-03            nan
       50 -1    0    0    0    0 -1.0478087808e-02 +3.1263033158e-02 +1.2749249497e+01 1.2749293112e+01 4.9935713700e-03 0.0000e+00 0.0000e+00
       11 -1    0    0    0    0 +1.3002326136e-18 -3.8794497676e-18 -1.5820625193e-15 5.1100000000e-04 5.1099893000e-04 0.0000e+00 1.0000e+00
       50  1    1    2    0    0 -2.4265945244e-03 +4.8324744620e-02 +1.2361396135e+01 1.2361491840e+01 4.9935713700e-03 0.0000e+00 0.0000e+00
       11  1    1    2    0    0 -8.0514932837e-03 -1.7061711462e-02 +3.8785336195e-01 3.8831227129e-01 5.1099893000e-04 0.0000e+00 1.0000e+00
<vert_displacement>
385.21064000784850
</vert_displacement>
</event>
<event>
 4   1200 +8.6263000e+09 8.13674800e-03 7.81665300e-03            nan
       50 -1    0    0    0    0 -1.0417344465e-02 +9.1401686744e-03 +2.2560170993e+01 2.2560175802e+01 4.9935713700e-03 0.0000e+00 0.0000e+00
       11 -1    0    0    0    0 +2.4991907562e-19 -2.1927877242e-19 -5.4123362238e-16 5.1100000000e-04 5.1099893000e-04 0.0000e+00 1.0000e+00
       50  1    1    2    0    0 -4.6909978650e-03 +1.2072245161e-02 +2.2519716408e+01 2.2519720687e+01 4.9935713700e-03 0.0000e+00 0.0000e+00
       11  1    1    2    0    0 -5.7263465999e-03 -2.9320764869e-03 +4.0454584534e-02 4.0966115848e-02 5.1099893000e-04 0.0000e+00 1.0000e+00
<vert_displacement>
441.60073387105200
</vert_displacement>
</event>
<event>
 4   1200 +8.6263000e+09 1.54418800e-02 7.81665300e-03            nan
       50 -1    0    0    0    0 -3.8036600896e-03 -3.7716324953e-03 +2.5832025262e+00 2.5832129065e+00 4.9935713700e-03 0.0000e+00 0.0000e+00
       11 -1    0    0    0    0 +1.2771519459e-19 +1.2663980658e-19 -8.6735987320e-17 5.1100000000e-04 5.1099893000e-04 0.0000e+00 1.0000e+00
       50  1    1    2    0    0 +5.9456429645e-03 -1.4614283086e-02 +2.3536500596e+00 2.3537082373e+00 4.9935713700e-03 0.0000e+00 0.0000e+00
       11  1    1    2    0    0 -9.7493030540e-03 +1.0842650591e-02 +2.2955246666e-01 2.3001566914e-01 5.1099893000e-04 0.0000e+00 1.0000e+00
<vert_displacement>
86.699381605466783
</vert_displacement>
</event>
<event>
 4   1200 +8.6263000e+09 2.04276700e-02 7.81665300e-03            nan
       50 -1    0    0    0    0 +5.2415187750e-03 -3.6215756517e-03 +5.3387280488e+00 5.3387341856e+00 4.9935713700e-03 0.0000e+00 0.0000e+00
       11 -1    0    0    0    0 -2.6568919439e-19 +1.8357532590e-19 -2.7061666956e-16 5.1100000000e-04 5.1099893000e-04 0.0000e+00 1.0000e+00
       50  1    1    2    0    0 -1.2742107467e-02 -1.2476095571e-02 +4.9221384219e+00 4.9221732593e+00 4.9935713700e-03 0.0000e+00 0.0000e+00
       11  1    1    2    0    0 +1.7983626242e-02 +8.8545199192e-03 +4.1658962691e-01 4.1707192630e-01 5.1099893000e-04 0.0000e+00 1.0000e+00
<vert_displacement>
271.29013781880678
</vert_displacement>
</event>
<event>
 4   1200 +8.6263000e+09 1.94370400e-02 7.81665300e-03            nan
       50 -1    0    0    0    0 -2.3953517488e-02 +3.9325386531e-02 +1.7224029389e+01 1.7224091663e+01 4.9935713700e-03 0.0000e+00 0.0000e+00
       11 -1    0    0    0    0 -1.1000896678e-18 +1.8060583973e-18 +7.9103107833e-16 5.1100000000e-04 5.1099893000e-04 0.0000e+00 1.0000e+00
       50  1    1    2    0    0 -8.1928770452e-03 +4.9460280404e-02 +1.6871525304e+01 1.6871600531e+01 4.9935713700e-03 0.0000e+00 0.0000e+00
       11  1    1    2    0    0 -1.5760640443e-02 -1.0134893873e-02 +3.5250408524e-01 3.5300213185e-01 5.1099893000e-04 0.0000e+00 1.0000e+00
<vert_displacement>
234.84616455978224
</vert_displacement>
</event>
<event>
 4   1200 +8.6263000e+09 2.08572100e-02 7.81665300e-03            nan
       50 -1    0    0    0    0 +3.7605632248e-02 +4.9821037645e-03 +2.0303086074e+01 2.0303122126e+01 4.9935713700e-03 0.0000e+00 0.0000e+00
       11 -1    0    0    0    0 -1.3109330112e-18 -1.7367622613e-19 -7.0776594283e-16 5.1100000000e-04 5.1099893000e-04 0.0000e+00 1.0000e+00
       50  1    1    2    0    0 +3.2106776655e-02 +2.4569600114e-02 +1.9893550054e+01 1.9893591762e+01 4.9935713700e-03 0.0000e+00 0.0000e+00
       11  1    1    2    0    0 +5.4988555928e-03 -1.9587496350e-02 +4.0953602037e-01 4.1004136441e-01 5.1099893000e-04 0.0000e+00 1.0000e+00
<vert_displacement>
78.006619770982070
</vert_displacement>
</event>
<event>
 4   1200 +8.6263000e+09 2.35466900e-02 7.81665300e-03            nan
       50 -1    0    0    0    0 +2.4180048044e-02 +3.8519351868e-02 +1.5182377708e+01 1.5182446648e+01 4.9935713700e-03 0.0000e+00 0.0000e+00
       11 -1    0    0    0    0 +6.5201513661e-19 +1.0386745479e-18 +4.0939290351e-16 5.1100000000e-04 5.1099893000e-04 0.0000e+00 1.0000e+00
       50  1    1    2    0    0 +4.6851864819e-04 +3.4489871530e-02 +1.4645258181e+01 1.4645299652e+01 4.9935713700e-03 0.0000e+00 0.0000e+00
       11  1    1    2    0    0 +2.3711529396e-02 +4.0294803376e-03 +5.3711952699e-01 5.3765799606e-01 5.1099893000e-04 0.0000e+00 1.0000e+00
<vert_displacement>
128.80529139591133
</vert_displacement>
</event>
<event>
 4   1200 +8.6263000e+09 7.02128100e-03 7.81665300e-03            nan
       50 -1    0    0    0    0 +7.6149949665e-03 +2.8911837372e-02 +1.5702596500e+01 1.5702625757e+01 4.9935713700e-03 0.0000e+00 0.0000e+00
       11 -1    0    0    0    0 +4.3072252005e-19 +1.6353233990e-18 +8.8817680977e-16 5.1100000000e-04 5.1099893000e-04 0.0000e+00 1.0000e+00
       50  1    1    2    0    0 +7.1880869064e-03 +2.3949540152e-02 +1.5678730477e+01 1.5678751211e+01 4.9935713700e-03 0.0000e+00 0.0000e+00
       11  1    1    2    0    0 +4.2690806018e-04 +4.9622972197e-03 +2.3866023186e-02 2.4385545449e-02 5.1099893000e-04 0.0000e+00 1.0000e+00
<vert_displacement>
374.99838495003382
</vert_displacement>
</event>
<event>
 4   1200 +8.6263000e+09 1.03049900e-02 7.81665300e-03            nan
       50 -1    0    0    0    0 -2.7751503603e-02 -8.1919007961e-03 +9.0837903163e+00 9.0838377738e+00 4.9935713700e-03 0.0000e+00 0.0000e+00
       11 -1    0    0    0    0 -1.7382863269e-18 -5.1312063480e-19 +5.6898641348e-16 5.1100000000e-04 5.1099893000e-04 0.0000e+00 1.0000e+00
       50  1    1    2    0    0 -2.0195996776e-02 -1.3393492542e-02 +9.0035856196e+00 9.0036196171e+00 4.9935713700e-03 0.0000e+00 0.0000e+00
       11  1    1    2    0    0 -7.5555068269e-03 +5.2015917459e-03 +8.0204696708e-02 8.0729156654e-02 5.1099893000e-04 0.0000e+00 1.0000e+00
<vert_displacement>
196.09814530687603
</vert_displacement>
</event>
<event>
 4   1200 +8.6263000e+09 1.19834500e-02 7.81665300e-03            nan
       50 -1    0    0    0    0 +2.2226802338e-02 -8.5431655864e-04 +9.7406024442e+00 9.7406291210e+00 4.9935713700e-03 0.0000e+00 0.0000e+00
       11 -1    0    0    0    0 -2.3275424939e-18 +8.9462175586e-20 -1.0200147444e-15 5.1100000000e-04 5.1099893000e-04 0.0000e+00 1.0000e+00
       50  1    1    2    0    0 +1.5392802191e-02 +7.8483721490e-03 +9.6230777019e+00 9.6230945089e+00 4.9935713700e-03 0.0000e+00 0.0000e+00
       11  1    1    2    0    0 +6.8340001466e-03 -8.7026887077e-03 +1.1752474230e-01 1.1804561204e-01 5.1099893000e-04 0.0000e+00 1.0000e+00
<vert_displacement>
188.11850124159292
</vert_displacement>
</event>
<event>
 4   1200 +8.6263000e+09 5.64534000e-03 7.81665300e-03            nan
       50 -1    0    0    0    0 -3.7680233597e-02 -2.2050462444e-02 +1.4713612600e+01 1.4713678218e+01 4.9935713700e-03 0.0000e+00 0.0000e+00
       11 -1    0    0    0    0 -1.4215842124e-19 -8.3191069413e-20 +5.5510906867e-17 5.1100000000e-04 5.1099893000e-04 0.0000e+00 1.0000e+00
       50  1    1    2    0    0 -3.6367891770e-02 -2.4333146809e-02 +1.4706824293e+01 1.4706890237e+01 4.9935713700e-03 0.0000e+00 0.0000e+00
       11  1    1    2    0    0 -1.3123418271e-03 +2.2826843659e-03 +6.7883065052e-03 7.2989803466e-03 5.1099893000e-04 0.0000e+00 1.0000e+00
<vert_displacement>
253.36150597738873
</vert_displacement>
</event>
<event>
 4   1200 +8.6263000e+09 9.12506600e-03 7.81665300e-03            nan
       50 -1    0    0    0    0 -2.0147746781e-02 -1.4942598145e-02 +8.2241384119e+00 8.2241781819e+00 4.9935713700e-03 0.0000e+00 0.0000e+00
       11 -1    0    0    0    0 -6.6296241395e-19 -4.9168678985e-19 +2.7061560350e-16 5.1100000000e-04 5.1099893000e-04 0.0000e+00 1.0000e+00
       50  1    1    2    0    0 -1.2996552445e-02 -1.7868932913e-02 +8.1666684347e+00 8.1666998517e+00 4.9935713700e-03 0.0000e+00 0.0000e+00
       11  1    1    2    0    0 -7.1511943355e-03 +2.9263347675e-03 +5.7469977245e-02 5.7989330226e-02 5.1099893000e-04 0.0000e+00 1.0000e+00
<vert_displacement>
110.85704124052775
</vert_displacement>
</event>
<event>
 4   1200 +8.6263000e+09 9.51051200e-03 7.81665300e-03            nan
       50 -1    0    0    0    0 +3.0343630846e-02 +3.1063190429e-02 +1.5094350421e+01 1.5094413710e+01 4.9935713700e-03 0.0000e+00 0.0000e+00
       11 -1    0    0    0    0 -1.5762315335e-18 -1.6136098060e-18 -7.8409176648e-16 5.1100000000e-04 5.1099893000e-04 0.0000e+00 1.0000e+00
       50  1    1    2    0    0 +3.5774147062e-02 +2.5048422767e-02 +1.5029970598e+01 1.5030034874e+01 4.9935713700e-03 0.0000e+00 0.0000e+00
       11  1    1    2    0    0 -5.4305162155e-03 +6.0147676622e-03 +6.4379823931e-02 6.4889835766e-02 5.1099893000e-04 0.0000e+00 1.0000e+00
<vert_displacement>
82.411786705759852
</vert_displacement>
</event>
<event>
 4   1200 +8.6263000e+09 5.84228100e-03 7.81665300e-03            nan
       50 -1    0    0    0    0 +2.6323585055e-02 +3.9310674916e-02 +1.7955058690e+01 1.7955121714e+01 4.9935713700e-03 0.0000e+00 0.0000e+00
       11 -1    0    0    0    0 +1.2207541035e-18 +1.8230293334e-18 +8.3266437795e-16 5.1100000000e-04 5.1099893000e-04 0.0000e+00 1.0000e+00
       50  1    1    2    0    0 +2.3508267099e-02 +3.8131404801e-02 +1.7946062072e+01 1.7946118674e+01 4.9935713700e-03 0.0000e+00 0.0000e+00
       11  1    1    2    0    0 +2.8153179564e-03 +1.1792701157e-03 +8.9966180905e-03 9.5140396349e-03 5.1099893000e-04 0.0000e+00 1.0000e+00
<vert_displacement>
75.253837276448252
</vert_displacement>
</event>
<event>
 4   1200 +8.6263000e+09 5.43399100e-03 7.81665300e-03            nan
       50 -1    0    0    0    0 +3.3278506300e-02 +2.9218658133e-03 +1.0672888040e+01 1.0672941490e+01 4.9935713700e-03 0.0000e+00 0.0000e+00
       11 -1    0    0    0    0 -1.9688443481e-18 -1.7286530052e-19 -6.3143625213e-16 5.1100000000e-04 5.1099893000e-04 0.0000e+00 1.0000e+00
       50  1    1    2    0    0 +3.1147061882e-02 +2.5905331947e-03 +1.0668398995e+01 1.0668445946e+01 4.9935713700e-03 0.0000e+00 0.0000e+00
       11  1    1    2    0    0 +2.1314444177e-03 +3.3133261867e-04 +4.4890448480e-03 5.0065437344e-03 5.1099893000e-04 0.0000e+00 1.0000e+00
<vert_displacement>
221.37350996066627
</vert_displacement>
</event>
<event>
 4   1200 +8.6263000e+09 1.33488400e-02 7.81665300e-03            nan
       50 -1    0    0    0    0 -6.2922675312e-02 -7.1164461670e-02 +3.0558475638e+01 3.0558623691e+01 4.9935713700e-03 0.0000e+00 0.0000e+00
       11 -1    0    0    0    0 -3.8291152313e-18 -4.3306633540e-18 +1.8596145814e-15 5.1100000000e-04 5.1099893000e-04 0.0000e+00 1.0000e+00
       50  1    1    2    0    0 -7.2716220610e-02 -7.7966574222e-02 +3.0407735991e+01 3.0407923301e+01 4.9935713700e-03 0.0000e+00 0.0000e+00
       11  1    1    2    0    0 +9.7935452974e-03 +6.8021125522e-03 +1.5073964692e-01 1.5121139024e-01 5.1099893000e-04 0.0000e+00 1.0000e+00
<vert_displacement>
274.55787394020416
</vert_displacement>
</event>
<event>
 4   1200 +8.6263000e+09 8.80241000e-03 7.81665300e-03            nan
       50 -1    0    0    0    0 -2.3947972349e-02 -2.5432792507e-02 +1.4744284937e+01 1.4744327165e+01 4.9935713700e-03 0.0000e+00 0.0000e+00
       11 -1    0    0    0    0 -2.2315121272e-18 -2.3698701535e-18 +1.3738971368e-15 5.1100000000e-04 5.1099893000e-04 0.0000e+00 1.0000e+00
       50  1    1    2    0    0 -2.9743825125e-02 -2.1103946440e-02 +1.4692684667e+01 1.4692730779e+01 4.9935713700e-03 0.0000e+00 0.0000e+00
       11  1    1    2    0    0 +5.7958527760e-03 -4.3288460669e-03 +5.1600269261e-02 5.2107386476e-02 5.1099893000e-04 0.0000e+00 1.0000e+00
<vert_displacement>
111.81594522549993
</vert_displacement>
</event>
<event>
 4   1200 +8.6263000e+09 2.47934300e-02 7.81665300e-03            nan
       50 -1    0    0    0    0 +1.5713312382e-01 +6.8447541188e-02 +5.2247401954e+01 5.2247683314e+01 4.9935713700e-03 0.0000e+00 0.0000e+00
       11 -1    0    0    0    0 +6.8866005832e-18 +2.9998186608e-18 +2.2898226677e-15 5.1100000000e-04 5.1099893000e-04 0.0000e+00 1.0000e+00
       50  1    1    2    0    0 +1.7724793076e-01 +5.7124612184e-02 +5.1663742895e+01 5.1664078768e+01 4.9935713700e-03 0.0000e+00 0.0000e+00
       11  1    1    2    0    0 -2.0114806945e-02 +1.1322929004e-02 +5.8365905818e-01 5.8411554636e-01 5.1099893000e-04 0.0000e+00 1.0000e+00
<vert_displacement>
384.39009781206187
</vert_displacement>
</event>
<event>
 4   1200 +8.6263000e+09 1.96762900e-02 7.81665300e-03            nan
       50 -1    0    0    0    0 +3.6218742498e-02 -6.8176883274e-03 +1.7164468695e+01 1.7164508988e+01 4.9935713700e-03 0.0000e+00 0.0000e+00
       11 -1    0    0    0    0 -1.7570070126e-18 +3.3073280226e-19 -8.3266534906e-16 5.1100000000e-04 5.1099893000e-04 0.0000e+00 1.0000e+00
       50  1    1    2    0    0 +1.7740917268e-02 -1.3633805317e-02 +1.6802421585e+01 1.6802437225e+01 4.9935713700e-03 0.0000e+00 0.0000e+00
       11  1    1    2    0    0 +1.8477825231e-02 +6.8161169894e-03 +3.6204710993e-01 3.6258276352e-01 5.1099893000e-04 0.0000e+00 1.0000e+00
<vert_displacement>
272.13472273783992
</vert_displacement>
</event>
<event>
 4   1200 +8.6263000e+09 2.06259600e-02 7.81665300e-03            nan
       50 -1    0    0    0    0 +1.6000308291e-03 +5.8126095611e-03 +5.0851705835e+00 5.0851766091e+00 4.9935713700e-03 0.0000e+00 0.0000e+00
       11 -1    0    0    0    0 +1.4409758492e-19 +5.2347928840e-19 +4.5796667581e-16 5.1100000000e-04 5.1099893000e-04 0.0000e+00 1.0000e+00
       50  1    1    2    0    0 +1.1742848359e-02 -1.1848447784e-02 +4.6570583849e+00 4.6570909392e+00 4.9935713700e-03 0.0000e+00 0.0000e+00
       11  1    1    2    0    0 -1.0142817530e-02 +1.7661057345e-02 +4.2811219863e-01 4.2859666987e-01 5.1099893000e-04 0.0000e+00 1.0000e+00
<vert_displacement>
242.66492493157307
</vert_displacement>
</event>
<event>
 4   1200 +8.6263000e+09 1.55670300e-02 7.81665300e-03            nan
       50 -1    0    0    0    0 -1.5105446167e-02 -2.2090999183e-02 +1.0840963236e+01 1.0840997417e+01 4.9935713700e-03 0.0000e+00 0.0000e+00
       11 -1    0    0    0    0 -1.6436280003e-19 -2.4037280600e-19 +1.1796083695e-16 5.1100000000e-04 5.1099893000e-04 0.0000e+00 1.0000e+00
       50  1    1    2    0    0 -3.6526324497e-04 -1.8657195869e-02 +1.0623906397e+01 1.0623923959e+01 4.9935713700e-03 0.0000e+00 0.0000e+00
       11  1    1    2    0    0 -1.4740182922e-02 -3.4338033142e-03 +2.1705683870e-01 2.1758445796e-01 5.1099893000e-04 0.0000e+00 1.0000e+00
<vert_displacement>
139.67811406501875
</vert_displacement>
</event>
<event>
 4   1200 +8.6263000e+09 2.92201300e-02 7.81665300e-03            nan
       50 -1    0    0    0    0 -4.2231028195e-02 +3.6775449225e-03 +1.8628063815e+01 1.8628112718e+01 4.9935713700e-03 0.0000e+00 0.0000e+00
       11 -1    0    0    0    0 +2.2023234167e-19 -1.9178181648e-20 -9.7144263121e-17 5.1100000000e-04 5.1099893000e-04 0.0000e+00 1.0000e+00
       50  1    1    2    0    0 -2.1828817722e-02 +2.5589974773e-02 +1.7778218603e+01 1.7778251122e+01 4.9935713700e-03 0.0000e+00 0.0000e+00
       11  1    1    2    0    0 -2.0402210473e-02 -2.1912429850e-02 +8.4984521259e-01 8.5037259555e-01 5.1099893000e-04 0.0000e+00 1.0000e+00
<vert_displacement>
420.64015703863089
</vert_displacement>
</event>
<event>
 4   1200 +8.6263000e+09 1.67454400e-02 7.81665300e-03            nan
       50 -1    0    0    0    0 +1.1603047638e-02 -2.1730423498e-02 +1.1167690467e+01 1.1167718753e+01 4.9935713700e-03 0.0000e+00 0.0000e+00
       11 -1    0    0    0    0 +4.1814402103e-19 -7.8310862312e-19 +4.0245486731e-16 5.1100000000e-04 5.1099893000e-04 0.0000e+00 1.0000e+00
       50  1    1    2    0    0 +1.3119910739e-02 -3.7116359621e-02 +1.0911797610e+01 1.0911869765e+01 4.9935713700e-03 0.0000e+00 0.0000e+00
       11  1    1    2    0    0 -1.5168631005e-03 +1.5385936124e-02 +2.5589285745e-01 2.5635998814e-01 5.1099893000e-04 0.0000e+00 1.0000e+00
<vert_displacement>
81.677270459624481
</vert_displacement>
</event>
<event>
 4   1200 +8.6263000e+09 5.17554100e-03 7.81665300e-03            nan
       50 -1    0    0    0    0 -1.6287000453e-02 -5.4778008131e-02 +3.0934162548e+01 3.0934215739e+01 4.9935713700e-03 0.0000e+00 0.0000e+00
       11 -1    0    0    0    0 -8.9872610844e-19 -3.0226821826e-18 +1.7069649875e-15 5.1100000000e-04 5.1099893000e-04 0.0000e+00 1.0000e+00
       50  1    1    2    0    0 -1.5445898420e-02 -5.5844668842e-02 +3.0932350330e+01 3.0932405000e+01 4.9935713700e-03 0.0000e+00 0.0000e+00
       11  1    1    2    0    0 -8.4110203247e-04 +1.0666607107e-03 +1.8122177812e-03 2.3217387652e-03 5.1099893000e-04 0.0000e+00 1.0000e+00
<vert_displacement>
190.97257956615564
</vert_displacement>
</event>
<event>
 4   1200 +8.6263000e+09 1.32942000e-02 7.81665300e-03            nan
       50 -1    0    0    0    0 -7.2996190991e-03 -1.6235518722e-02 +7.6142761998e+00 7.6142986452e+00 4.9935713700e-03 0.0000e+00 0.0000e+00
       11 -1    0    0    0    0 +1.0111235387e-18 +2.2489002398e-18 -1.0547089911e-15 5.1100000000e-04 5.1099893000e-04 0.0000e+00 1.0000e+00
       50  1    1    2    0    0 +8.5421990363e-04 -2.5275198358e-02 +7.4626954308e+00 7.4627399522e+00 4.9935713700e-03 0.0000e+00 0.0000e+00
       11  1    1    2    0    0 -8.1538390028e-03 +9.0396796357e-03 +1.5158076901e-01 1.5206969307e-01 5.1099893000e-04 0.0000e+00 1.0000e+00
<vert_displacement>
428.30485921766979
</vert_displacement>
</event>
<event>
 4   1200 +8.6263000e+09 1.24559700e-02 7.81665300e-03            nan
       50 -1    0    0    0    0 -1.9551967225e-03 +2.4314092671e-02 +1.1191590243e+01 1.1191617939e+01 4.9935713700e-03 0.0000e+00 0.0000e+00
       11 -1    0    0    0    0 -1.1273812920e-19 +1.4019690649e-18 +6.4531560031e-16 5.1100000000e-04 5.1099893000e-04 0.0000e+00 1.0000e+00
       50  1    1    2    0    0 -2.5156213717e-03 +3.5430311772e-02 +1.1062659534e+01 1.1062717683e+01 4.9935713700e-03 0.0000e+00 0.0000e+00
       11  1    1    2    0    0 +5.6042464916e-04 -1.1116219101e-02 +1.2893070905e-01 1.2941125631e-01 5.1099893000e-04 0.0000e+00 1.0000e+00
<vert_displacement>
149.28289942812827
</vert_displacement>
</event>
<event>
 4   1200 +8.6263000e+09 2.42693900e-02 7.81665300e-03            nan
       50 -1    0    0    0    0 +3.4843275794e-02 -4.3631182493e-02 +5.3627109931e+01 5.3627139233e+01 4.9935713700e-03 0.0000e+00 0.0000e+00
       11 -1    0    0    0    0 +9.2873501165e-19 -1.1629735109e-18 +1.4294113694e-15 5.1100000000e-04 5.1099893000e-04 0.0000e+00 1.0000e+00
       50  1    1    2    0    0 +4.8917217505e-02 -6.2036348056e-02 +5.3069351940e+01 5.3069410979e+01 4.9935713700e-03 0.0000e+00 0.0000e+00
       11  1    1    2    0    0 -1.4073941711e-02 +1.8405165563e-02 +5.5775799111e-01 5.5823925312e-01 5.1099893000e-04 0.0000e+00 1.0000e+00
<vert_displacement>
261.25865435080624
</vert_displacement>
</event>
<event>
 4   1200 +8.6263000e+09 2.17694500e-02 7.81665300e-03            nan
       50 -1    0    0    0    0 -2.2586667820e-03 -6.4587022565e-03 +4.0183234921e+00 4.0183324202e+00 4.9935713700e-03 0.0000e+00 0.0000e+00
       11 -1    0    0    0    0 -3.9002898783e-21 -1.1152955911e-20 +6.9388838446e-18 5.1100000000e-04 5.1099893000e-04 0.0000e+00 1.0000e+00
       50  1    1    2    0    0 -1.2228423041e-02 +1.2892699557e-02 +3.5157406191e+00 3.5157890712e+00 4.9935713700e-03 0.0000e+00 0.0000e+00
       11  1    1    2    0    0 +9.9697562593e-03 -1.9351401813e-02 +5.0258287298e-01 5.0305434908e-01 5.1099893000e-04 0.0000e+00 1.0000e+00
<vert_displacement>
66.615618480299617
</vert_displacement>
</event>
<event>
 4   1200 +8.6263000e+09 1.00370100e-02 7.81665300e-03            nan
       50 -1    0    0    0    0 +4.2675401866e-02 -5.6884967516e-02 +2.2749105787e+01 2.2749217484e+01 4.9935713700e-03 0.0000e+00 0.0000e+00
       11 -1    0    0    0    0 +1.8483736082e-18 -2.4638238438e-18 +9.8531812023e-16 5.1100000000e-04 5.1099893000e-04 0.0000e+00 1.0000e+00
       50  1    1    2    0    0 +3.4344801743e-02 -5.3747114263e-02 +2.2674709494e+01 2.2674799754e+01 4.9935713700e-03 0.0000e+00 0.0000e+00
       11  1    1    2    0    0 +8.3306001228e-03 -3.1378532537e-03 +7.4396292714e-02 7.4928729543e-02 5.1099893000e-04 0.0000e+00 1.0000e+00
<vert_displacement>
70.076316249689086
</vert_displacement>
</event>
<event>
 4   1200 +8.6263000e+09 1.00065100e-02 7.81665300e-03            nan
       50 -1    0    0    0    0 -2.0964875803e-02 -2.0475280594e-03 +6.5897053571e+00 6.5897409165e+00 4.9935713700e-03 0.0000e+00 0.0000e+00
       11 -1    0    0    0    0 -1.7660553581e-19 -1.7248124597e-20 +5.5510867621e-17 5.1100000000e-04 5.1099893000e-04 0.0000e+00 1.0000e+00
       50  1    1    2    0    0 -1.3461828979e-02 -6.7567802377e-03 +6.5153021786e+00 6.5153215031e+00 4.9935713700e-03 0.0000e+00 0.0000e+00
       11  1    1    2    0    0 -7.5030468237e-03 +4.7092521783e-03 +7.4403178468e-02 7.4930413410e-02 5.1099893000e-04 0.0000e+00 1.0000e+00
<vert_displacement>
191.26176203473443
</vert_displacement>
</event>
<event>
 4   1200 +8.6263000e+09 1.44785500e-02 7.81665300e-03            nan
       50 -1    0    0    0    0 -1.4469765206e-02 -4.5828323785e-03 +4.5804933347e+00 4.5805212042e+00 4.9935713700e-03 0.0000e+00 0.0000e+00
       11 -1    0    0    0    0 -3.9455685800e-19 -1.2496318484e-19 +1.2489940456e-16 5.1100000000e-04 5.1099893000e-04 0.0000e+00 1.0000e+00
       50  1    1    2    0    0 -1.3717623284e-02 -1.7983453603e-02 +4.3919429329e+00 4.3920040118e+00 4.9935713700e-03 0.0000e+00 0.0000e+00
       11  1    1    2    0    0 -7.5214192192e-04 +1.3400621225e-02 +1.8855040185e-01 1.8902819240e-01 5.1099893000e-04 0.0000e+00 1.0000e+00
<vert_displacement>
108.50696977489049
</vert_displacement>
</event>
<event>
 4   1200 +8.6263000e+09 1.83443400e-02 7.81665300e-03            nan
       50 -1    0    0    0    0 +8.4964702429e-03 +2.2202595387e-02 +3.2210641851e+01 3.2210651010e+01 4.9935713700e-03 0.0000e+00 0.0000e+00
       11 -1    0    0    0    0 -2.3794284115e-19 -6.2178157237e-19 -9.0205596183e-16 5.1100000000e-04 5.1099893000e-04 0.0000e+00 1.0000e+00
       50  1    1    2    0    0 +2.4900115412e-02 +1.5679378894e-02 +3.1902821192e+01 3.1902835153e+01 4.9935713700e-03 0.0000e+00 0.0000e+00
       11  1    1    2    0    0 -1.6403645169e-02 +6.5232164934e-03 +3.0782065823e-01 3.0832685689e-01 5.1099893000e-04 0.0000e+00 1.0000e+00
<vert_displacement>
65.281699496067304
</vert_displacement>
</event>
<event>
 4   1200 +8.6263000e+09 5.76076200e-02 7.81665300e-03            nan
       50 -1    0    0    0    0 +8.7582995135e-02 +5.2699268791e-04 +2.7804483578e+01 2.7804621973e+01 4.9935713700e-03 0.0000e+00 0.0000e+00
       11 -1    0    0    0    0 -9.6171353607e-18 -5.7866941020e-20 -3.0530981704e-15 5.1100000000e-04 5.1099893000e-04 0.0000e+00 1.0000e+00
       50  1    1    2    0    0 +2.1989058670e-02 -1.9329769008e-02 +2.4083315080e+01 2.4083333394e+01 4.9935713700e-03 0.0000e+00 0.0000e+00
       11  1    1    2    0    0 +6.5593936464e-02 +1.9856761696e-02 +3.7211684977e+00 3.7217995788e+00 5.1099893000e-04 0.0000e+00 1.0000e+00
<vert_displacement>
147.88182432192454
</vert_displacement>
</event>
<event>
 4   1200 +8.6263000e+09 5.11738300e-03 7.81665300e-03            nan
       50 -1    0    0    0    0 +8.3086511935e-02 -9.0863173361e-02 +3.8774531999e+01 3.8774727802e+01 4.9935713700e-03 0.0000e+00 0.0000e+00
       11 -1    0    0    0    0 +7.2559092472e-18 -7.9350417350e-18 +3.3861631537e-15 5.1100000000e-04 5.1099893000e-04 0.0000e+00 1.0000e+00
       50  1    1    2    0    0 +8.2339994533e-02 -9.0024561516e-02 +3.8773310599e+01 3.8773502860e+01 4.9935713700e-03 0.0000e+00 0.0000e+00
       11  1    1    2    0    0 +7.4651740247e-04 -8.3861184452e-04 +1.2213995834e-03 1.7359420804e-03 5.1099893000e-04 0.0000e+00 1.0000e+00
<vert_displacement>
213.38911645873074
</vert_displacement>
</event>
<event>
 4   1200 +8.6263000e+09 6.86702600e-03 7.81665300e-03            nan
       50 -1    0    0    0    0 -5.3236510279e-02 -3.7973485487e-02 +2.1169833579e+01 2.1169935163e+01 4.9935713700e-03 0.0000e+00 0.0000e+00
       11 -1    0    0    0    0 -7.5381375406e-18 -5.3769368992e-18 +2.9975878659e-15 5.1100000000e-04 5.1099893000e-04 0.0000e+00 1.0000e+00
       50  1    1    2    0    0 -4.8650221807e-02 -3.6636328978e-02 +2.1148082513e+01 2.1148170795e+01 4.9935713700e-03 0.0000e+00 0.0000e+00
       11  1    1    2    0    0 -4.5862884714e-03 -1.3371565096e-03 +2.1751066176e-02 2.2275368217e-02 5.1099893000e-04 0.0000e+00 1.0000e+00
<vert_displacement>
256.96897909082338
</vert_displacement>
</event>
<event>
 4   1200 +8.6263000e+09 9.22300500e-03 7.81665300e-03            nan
       50 -1    0    0    0    0 -1.4291622189e-02 +2.7864832839e-02 +1.4070056557e+01 1.4070092294e+01 4.9935713700e-03 0.0000e+00 0.0000e+00
       11 -1    0    0    0    0 -1.0783662467e-18 +2.1025251583e-18 +1.0616481377e-15 5.1100000000e-04 5.1099893000e-04 0.0000e+00 1.0000e+00
       50  1    1    2    0    0 -6.4967750221e-03 +2.8295903021e-02 +1.4010979065e+01 1.4011010034e+01 4.9935713700e-03 0.0000e+00 0.0000e+00
       11  1    1    2    0    0 -7.7948471668e-03 -4.3107018138e-04 +5.9077492190e-02 5.9593260250e-02 5.1099893000e-04 0.0000e+00 1.0000e+00
<vert_displacement>
235.37515289914279
</vert_displacement>
</event>
<event>
 4   1200 +8.6263000e+09 3.14372300e-02 7.81665300e-03            nan
       50 -1    0    0    0    0 -1.7572580133e-03 +3.0836877191e-03 +7.2382582447e+00 7.2382608373e+00 4.9935713700e-03 0.0000e+00 0.0000e+00
       11 -1    0    0    0    0 +6.7383202082e-21 -1.1824601234e-20 -2.7755572279e-17 5.1100000000e-04 5.1099893000e-04 0.0000e+00 1.0000e+00
       50  1    1    2    0    0 +2.1762068623e-02 -1.7955018227e-02 +6.1232398019e+00 6.1233068335e+00 4.9935713700e-03 0.0000e+00 0.0000e+00
       11  1    1    2    0    0 -2.3519326636e-02 +2.1038705946e-02 +1.1150184428e+00 1.1154650038e+00 5.1099893000e-04 0.0000e+00 1.0000e+00
<vert_displacement>
62.732391150421691
</vert_displacement>
</event>
<event>
 4   1200 +8.6263000e+09 1.24249600e-02 7.81665300e-03            nan
       50 -1    0    0    0    0 +7.2309790281e-03 +1.5283593360e-03 +4.5111728998e+00 4.5111817177e+00 4.9935713700e-03 0.0000e+00 0.0000e+00
       11 -1    0    0    0    0 -3.7816054107e-19 -7.9929037436e-20 -2.3592207612e-16 5.1100000000e-04 5.1099893000e-04 0.0000e+00 1.0000e+00
       50  1    1    2    0    0 +1.7393773877e-02 -3.1920437288e-03 +4.3806930143e+00 4.3807315546e+00 4.9935713700e-03 0.0000e+00 0.0000e+00
       11  1    1    2    0    0 -1.0162794849e-02 +4.7204030647e-03 +1.3047988552e-01 1.3096116313e-01 5.1099893000e-04 0.0000e+00 1.0000e+00
<vert_displacement>
476.80114123249098
</vert_displacement>
</event>
<event>
 4   1200 +8.6263000e+09 2.60351800e-02 7.81665300e-03            nan
       50 -1    0    0    0    0 -5.3197255275e-02 +2.3574598513e-02 +2.4945188715e+01 2.4945257078e+01 4.9935713700e-03 0.0000e+00 0.0000e+00
       11 -1    0    0    0    0 -7.5171844981e-18 +3.3312734948e-18 +3.5249485136e-15 5.1100000000e-04 5.1099893000e-04 0.0000e+00 1.0000e+00
       50  1    1    2    0    0 -7.7332883601e-02 +2.3883409435e-02 +2.4289006860e+01 2.4289142224e+01 4.9935713700e-03 0.0000e+00 0.0000e+00
       11  1    1    2    0    0 +2.4135628325e-02 -3.0881092215e-04 +6.5618185532e-01 6.5662585411e-01 5.1099893000e-04 0.0000e+00 1.0000e+00
<vert_displacement>
401.73604107016007
</vert_displacement>
</event>
<event>
 4   1200 +8.6263000e+09 1.67447800e-02 7.81665300e-03            nan
       50 -1    0    0    0    0 -3.2466126020e-03 -6.9451685727e-02 +2.8677003139e+01 2.8677087859e+01 4.9935713700e-03 0.0000e+00 0.0000e+00
       11 -1    0    0    0    0 -2.4195599847e-19 -5.1759338195e-18 +2.1371730410e-15 5.1100000000e-04 5.1099893000e-04 0.0000e+00 1.0000e+00
       50  1    1    2    0    0 +1.2588042907e-02 -7.1211362909e-02 +2.8424823158e+01 2.8424915585e+01 4.9935713700e-03 0.0000e+00 0.0000e+00
       11  1    1    2    0    0 -1.5834655509e-02 +1.7596771819e-03 +2.5217998158e-01 2.5268327410e-01 5.1099893000e-04 0.0000e+00 1.0000e+00
<vert_displacement>
330.94780558347247
</vert_displacement>
</event>
<event>
 4   1200 +8.6263000e+09 9.07369100e-03 7.81665300e-03            nan
       50 -1    0    0    0    0 +5.6295066796e-03 +8.3396163836e-03 +5.4994294255e+00 5.4994408972e+00 4.9935713700e-03 0.0000e+00 0.0000e+00
       11 -1    0    0    0    0 -1.2075111435e-19 -1.7888209907e-19 -1.1796099893e-16 5.1100000000e-04 5.1099893000e-04 0.0000e+00 1.0000e+00
       50  1    1    2    0    0 +1.2332034675e-02 +1.1672603680e-02 +5.4426633305e+00 5.4426921090e+00 4.9935713700e-03 0.0000e+00 0.0000e+00
       11  1    1    2    0    0 -6.7025279949e-03 -3.3329872968e-03 +5.6766095001e-02 5.7259788224e-02 5.1099893000e-04 0.0000e+00 1.0000e+00
<vert_displacement>
4.3211372250667228
</vert_displacement>
</event>
<event>
 4   1200 +8.6263000e+09 1.10060900e-02 7.81665300e-03            nan
       50 -1    0    0    0    0 -6.1707909171e-02 -3.8819912856e-03 +1.9447204360e+01 1.9447303291e+01 4.9935713700e-03 0.0000e+00 0.0000e+00
       11 -1    0    0    0    0 +2.2017687618e-18 +1.3851137174e-19 -6.9388588336e-16 5.1100000000e-04 5.1099893000e-04 0.0000e+00 1.0000e+00
       50  1    1    2    0    0 -5.6358673901e-02 +4.5454955180e-03 +1.9352631937e+01 1.9352715178e+01 4.9935713700e-03 0.0000e+00 0.0000e+00
       11  1    1    2    0    0 -5.3492352704e-03 -8.4274868036e-03 +9.4572423489e-02 9.5099112805e-02 5.1099893000e-04 0.0000e+00 1.0000e+00
<vert_displacement>
397.18965766557352
</vert_displacement>
</event>
<event>
 4   1200 +8.6263000e+09 1.39980400e-02 7.81665300e-03            nan
       50 -1    0    0    0    0 +2.9472052437e-03 -1.1400069146e-02 +1.4150058479e+01 1.4150064259e+01 4.9935713700e-03 0.0000e+00 0.0000e+00
       11 -1    0    0    0    0 -1.2862703239e-19 +4.9754154939e-19 -6.1756134363e-16 5.1100000000e-04 5.1099893000e-04 0.0000e+00 1.0000e+00
       50  1    1    2    0    0 +1.5858665405e-02 -1.3105188607e-02 +1.3980689543e+01 1.3980705572e+01 4.9935713700e-03 0.0000e+00 0.0000e+00
       11  1    1    2    0    0 -1.2911460161e-02 +1.7051194607e-03 +1.6936893568e-01 1.6986968750e-01 5.1099893000e-04 0.0000e+00 1.0000e+00
<vert_displacement>
487.75600393243764
</vert_displacement>
</event>
<event>
 4   1200 +8.6263000e+09 5.47042800e-03 7.81665300e-03            nan
       50 -1    0    0    0    0 -3.4107035417e-02 +3.9771590899e-05 +1.5617135668e+01 1.5617173710e+01 4.9935713700e-03 0.0000e+00 0.0000e+00
       11 -1    0    0    0    0 -2.6974400592e-18 +3.1454355736e-21 +1.2351201694e-15 5.1100000000e-04 5.1099893000e-04 0.0000e+00 1.0000e+00
       50  1    1    2    0    0 -3.1993594877e-02 +7.9351301036e-04 +1.5612256170e+01 1.5612289770e+01 4.9935713700e-03 0.0000e+00 0.0000e+00
       11  1    1    2    0    0 -2.1134405405e-03 -7.5374141946e-04 +4.8794978056e-03 5.3949398317e-03 5.1099893000e-04 0.0000e+00 1.0000e+00
<vert_displacement>
308.71640753160199
</vert_displacement>
</event>
<event>
 4   1200 +8.6263000e+09 6.93345500e-03 7.81665300e-03            nan
       50 -1    0    0    0    0 +2.5509259436e-02 -5.3348164721e-02 +2.5943127509e+01 2.5943195382e+01 4.9935713700e-03 0.0000e+00 0.0000e+00
       11 -1    0    0    0    0 -2.0059124316e-18 +4.1950158172e-18 -2.0400295084e-15 5.1100000000e-04 5.1099893000e-04 0.0000e+00 1.0000e+00
       50  1    1    2    0    0 +2.2210198932e-02 -5.6822895680e-02 +2.5920464309e+01 2.5920536589e+01 4.9935713700e-03 0.0000e+00 0.0000e+00
       11  1    1    2    0    0 +3.2990605041e-03 +3.4747309591e-03 +2.2663200377e-02 2.3169793411e-02 5.1099893000e-04 0.0000e+00 1.0000e+00
<vert_displacement>
296.36388517356676
</vert_displacement>
</event>
<event>
 4   1200 +8.6263000e+09 1.69632200e-02 7.81665300e-03            nan
       50 -1    0    0    0    0 -5.7781867208e-04 -1.0515109709e-03 +2.3415245333e+00 2.3415301654e+00 4.9935713700e-03 0.0000e+00 0.0000e+00
       11 -1    0    0    0    0 +2.0547751063e-20 +3.7392674751e-20 -8.3266715916e-17 5.1100000000e-04 5.1099893000e-04 0.0000e+00 1.0000e+00
       50  1    1    2    0    0 +1.1928527028e-02 +9.4836998933e-03 +2.0468497617e+00 2.0469125807e+00 4.9935713700e-03 0.0000e+00 0.0000e+00
       11  1    1    2    0    0 -1.2506345700e-02 -1.0535210864e-02 +2.9467477157e-01 2.9512858464e-01 5.1099893000e-04 0.0000e+00 1.0000e+00
<vert_displacement>
115.12743702948201
</vert_displacement>
</event>
<event>
 4   1200 +8.6263000e+09 8.02759100e-03 7.81665300e-03            nan
       50 -1    0    0    0    0 +1.7258464461e-02 +1.4690939846e-02 +8.3606335694e+00 8.3606657806e+00 4.9935713700e-03 0.0000e+00 0.0000e+00
       11 -1    0    0    0    0 +2.8360690776e-18 +2.4141498981e-18 +1.3738959448e-15 5.1100000000e-04 5.1099893000e-04 0.0000e+00 1.0000e+00
       50  1    1    2    0    0 +1.9370553497e-02 +2.0513383342e-02 +8.3217794838e+00 8.3218288092e+00 4.9935713700e-03 0.0000e+00 0.0000e+00
       11  1    1    2    0    0 -2.1120890363e-03 -5.8224434963e-03 +3.8854085624e-02 3.9347971459e-02 5.1099893000e-04 0.0000e+00 1.0000e+00
<vert_displacement>
229.81380921326596
</vert_displacement>
</event>
<event>
 4   1200 +8.6263000e+09 7.76063400e-03 7.81665300e-03            nan
       50 -1    0    0    0    0 -2.3876929600e-02 +2.3712277760e-02 +1.5215138991e+01 1.5215177023e+01 4.9935713700e-03 0.0000e+00 0.0000e+00
       11 -1    0    0    0    0 -8.7112750601e-19 +8.6512033721e-19 +5.5511015466e-16 5.1100000000e-04 5.1099893000e-04 0.0000e+00 1.0000e+00
       50  1    1    2    0    0 -1.7892058956e-02 +2.3311768782e-02 +1.5180536921e+01 1.5180566185e+01 4.9935713700e-03 0.0000e+00 0.0000e+00
       11  1    1    2    0    0 -5.9848706439e-03 +4.0050897848e-04 +3.4602070686e-02 3.5121837932e-02 5.1099893000e-04 0.0000e+00 1.0000e+00
<vert_displacement>
457.81336934889413
</vert_displacement>
</event>
<event>
 4   1200 +8.6263000e+09 3.36672300e-02 7.81665300e-03            nan
       50 -1    0    0    0    0 -3.4230464481e-03 +1.6316013839e-02 +9.4957611134e+00 9.4957770607e+00 4.9935713700e-03 0.0000e+00 0.0000e+00
       11 -1    0    0    0    0 -3.0266204344e-19 +1.4426441955e-18 +8.3960486842e-16 5.1100000000e-04 5.1099893000e-04 0.0000e+00 1.0000e+00
       50  1    1    2    0    0 +2.9670923109e-02 +7.6154826103e-03 +8.2461836817e+00 8.2462420900e+00 4.9935713700e-03 0.0000e+00 0.0000e+00
       11  1    1    2    0    0 -3.3093969557e-02 +8.7005312285e-03 +1.2495774317e+00 1.2500459708e+00 5.1099893000e-04 0.0000e+00 1.0000e+00
<vert_displacement>
294.42817644970086
</vert_displacement>
</event>
<event>
 4   1200 +8.6263000e+09 1.64559800e-02 7.81665300e-03            nan
       50 -1    0    0    0    0 +3.0818774743e-03 -1.4025174930e-03 +1.2539372193e+00 1.2539517338e+00 4.9935713700e-03 0.0000e+00 0.0000e+00
       11 -1    0    0    0    0 +1.6201373881e-19 -7.3730089753e-20 +6.5919251759e-17 5.1100000000e-04 5.1099893000e-04 0.0000e+00 1.0000e+00
       50  1    1    2    0    0 +1.2009613062e-02 +1.1257017328e-02 +9.2567382037e-01 9.2583362907e-01 4.9935713700e-03 0.0000e+00 0.0000e+00
       11  1    1    2    0    0 -8.9277355882e-03 -1.2659534821e-02 +3.2826339888e-01 3.2862910469e-01 5.1099893000e-04 0.0000e+00 1.0000e+00
<vert_displacement>
260.76858938944412
</vert_displacement>
</event>
<event>
 4   1200 +8.6263000e+09 5.99652600e-03 7.81665300e-03            nan
       50 -1    0    0    0    0 +1.3410582349e-02 +6.5159491844e-04 +4.9597932045e+00 4.9598138912e+00 4.9935713700e-03 0.0000e+00 0.0000e+00
       11 -1    0    0    0    0 -2.2514067821e-19 -1.0939161182e-20 -8.3266421755e-17 5.1100000000e-04 5.1099893000e-04 0.0000e+00 1.0000e+00
       50  1    1    2    0    0 +1.6683605633e-02 +3.0721874745e-04 +4.9489742788e+00 4.9490049287e+00 4.9935713700e-03 0.0000e+00 0.0000e+00
       11  1    1    2    0    0 -3.2730232840e-03 +3.4437617099e-04 +1.0818925756e-02 1.1319962490e-02 5.1099893000e-04 0.0000e+00 1.0000e+00
<vert_displacement>
465.57519555064624
</vert_displacement>
</event>
<event>
 4   1200 +8.6263000e+09 2.62955800e-02 7.81665300e-03            nan
       50 -1    0    0    0    0 -1.5373214302e-02 -2.0767671914e-02 +3.9722248983e+01 3.9722257701e+01 4.9935713700e-03 0.0000e+00 0.0000e+00
       11 -1    0    0    0    0 +1.1923506077e-18 +1.6107461810e-18 -3.0808682415e-15 5.1100000000e-04 5.1099893000e-04 0.0000e+00 1.0000e+00
       50  1    1    2    0    0 -4.0321947476e-02 -2.6007335967e-02 +3.9058972268e+01 3.9059002059e+01 4.9935713700e-03 0.0000e+00 0.0000e+00
       11  1    1    2    0    0 +2.4948733173e-02 +5.2396640528e-03 +6.6327671493e-01 6.6376664202e-01 5.1099893000e-04 0.0000e+00 1.0000e+00
<vert_displacement>
280.02414071127220
</vert_displacement>
</event>
<event>
 4   1200 +8.6263000e+09 1.70713100e-02 7.81665300e-03            nan
       50 -1    0    0    0    0 -2.1253897372e-03 -2.4255815820e-03 +2.3244630053e+00 2.3244706062e+00 4.9935713700e-03 0.0000e+00 0.0000e+00
       11 -1    0    0    0    0 +2.8550800114e-20 +3.2583339279e-20 -3.1224992514e-17 5.1100000000e-04 5.1099893000e-04 0.0000e+00 1.0000e+00
       50  1    1    2    0    0 +1.1538651172e-02 +7.2258026704e-03 +2.0245722825e+00 2.0246242159e+00 4.9935713700e-03 0.0000e+00 0.0000e+00
       11  1    1    2    0    0 -1.3664040910e-02 -9.6513842524e-03 +2.9989072272e-01 3.0035739033e-01 5.1099893000e-04 0.0000e+00 1.0000e+00
<vert_displacement>
156.59347347064133
</vert_displacement>
</event>
<event>
 4   1200 +8.6263000e+09 6.30693700e-03 7.81665300e-03            nan
       50 -1    0    0    0    0 -3.9007220966e-02 -2.4609618765e-02 +1.2793016526e+01 1.2793100640e+01 4.9935713700e-03 0.0000e+00 0.0000e+00
       11 -1    0    0    0    0 +3.7659927245e-18 +2.3759612433e-18 -1.2351150882e-15 5.1100000000e-04 5.1099893000e-04 0.0000e+00 1.0000e+00
       50  1    1    2    0    0 -4.1326218044e-02 -2.1539220228e-02 +1.2778475918e+01 1.2778561872e+01 4.9935713700e-03 0.0000e+00 0.0000e+00
       11  1    1    2    0    0 +2.3189970782e-03 -3.0703985368e-03 +1.4540608691e-02 1.5049767959e-02 5.1099893000e-04 0.0000e+00 1.0000e+00
<vert_displacement>
356.60573129924120
</vert_displacement>
</event>
<event>
 4   1200 +8.6263000e+09 1.61801600e-02 7.81665300e-03            nan
       50 -1    0    0    0    0 -2.2438735500e-02 +1.9608756417e-02 +2.8585349400e+01 2.8585365369e+01 4.9935713700e-03 0.0000e+00 0.0000e+00
       11 -1    0    0    0    0 -2.5055479423e-19 +2.1895475924e-19 +3.1918894614e-16 5.1100000000e-04 5.1099893000e-04 0.0000e+00 1.0000e+00
       50  1    1    2    0    0 -1.2629404136e-02 +7.4399821377e-03 +2.8351686356e+01 2.8351690585e+01 4.9935713700e-03 0.0000e+00 0.0000e+00
       11  1    1    2    0    0 -9.8093313636e-03 +1.2168774279e-02 +2.3366304384e-01 2.3418578357e-01 5.1099893000e-04 0.0000e+00 1.0000e+00
<vert_displacement>
409.14134560998212
</vert_displacement>
</event>
<event>
 4   1200 +8.6263000e+09 1.45959400e-02 7.81665300e-03            nan
       50 -1    0    0    0    0 -2.0797434217e-02 +1.0325649037e-02 +9.8069517715e+00 9.8069805310e+00 4.9935713700e-03 0.0000e+00 0.0000e+00
       11 -1    0    0    0    0 +3.0460364437e-18 -1.5123165167e-18 -1.4363470121e-15 5.1100000000e-04 5.1099893000e-04 0.0000e+00 1.0000e+00
       50  1    1    2    0    0 -3.2718515429e-02 +4.0992946899e-03 +9.6192665181e+00 9.6193243311e+00 4.9935713700e-03 0.0000e+00 0.0000e+00
       11  1    1    2    0    0 +1.1921081212e-02 +6.2263543473e-03 +1.8768525342e-01 1.8816719995e-01 5.1099893000e-04 0.0000e+00 1.0000e+00
<vert_displacement>
240.91488594363236
</vert_displacement>
</event>
<event>
 4   1200 +8.6263000e+09 4.84772600e-02 7.81665300e-03            nan
       50 -1    0    0    0    0 +1.4608478908e-02 -9.0179157813e-03 +1.2537699040e+01 1.2537711789e+01 4.9935713700e-03 0.0000e+00 0.0000e+00
       11 -1    0    0    0    0 -4.8509661886e-19 +2.9945352163e-19 -4.1633324393e-16 5.1100000000e-04 5.1099893000e-04 0.0000e+00 1.0000e+00
       50  1    1    2    0    0 -3.5646319526e-02 +4.8579362230e-03 +9.5485675065e+00 9.5486365845e+00 4.9935713700e-03 0.0000e+00 0.0000e+00
       11  1    1    2    0    0 +5.0254798434e-02 -1.3875852004e-02 +2.9891315338e+00 2.9895862041e+00 5.1099893000e-04 0.0000e+00 1.0000e+00
<vert_displacement>
485.78284028069879
</vert_displacement>
</event>
<event>
 4   1200 +8.6263000e+09 6.45450200e-03 7.81665300e-03            nan
       50 -1    0    0    0    0 +2.4449050422e-02 +1.2405160621e-02 +7.2837405379e+00 7.2837938469e+00 4.9935713700e-03 0.0000e+00 0.0000e+00
       11 -1    0    0    0    0 -1.4440638275e-18 -7.3270100142e-19 -4.3020837449e-16 5.1100000000e-04 5.1099893000e-04 0.0000e+00 1.0000e+00
       50  1    1    2    0    0 +2.7379215660e-02 +1.5172410130e-02 +7.2673228402e+00 7.2673919685e+00 4.9935713700e-03 0.0000e+00 0.0000e+00
       11  1    1    2    0    0 -2.9301652379e-03 -2.7672495090e-03 +1.6417697688e-02 1.6912878391e-02 5.1099893000e-04 0.0000e+00 1.0000e+00
<vert_displacement>
316.77065177401943
</vert_displacement>
</event>
<event>
 4   1200 +8.6263000e+09 6.72273400e-03 7.81665300e-03            nan
       50 -1    0    0    0    0 +2.9501419228e-03 -1.2696609122e-04 +7.2299536324e+00 7.2299559599e+00 4.9935713700e-03 0.0000e+00 0.0000e+00
       11 -1    0    0    0    0 -3.1711415694e-19 +1.3647731543e-20 -7.7715605242e-16 5.1100000000e-04 5.1099893000e-04 0.0000e+00 1.0000e+00
       50  1    1    2    0    0 +7.1416863855e-04 -4.0376302647e-03 +7.2100749458e+00 7.2100778409e+00 4.9935713700e-03 0.0000e+00 0.0000e+00
       11  1    1    2    0    0 +2.2359732843e-03 +3.9106641735e-03 +1.9878686614e-02 2.0389118966e-02 5.1099893000e-04 0.0000e+00 1.0000e+00
<vert_displacement>
255.00457625543004
</vert_displacement>
</event>
<event>
 4   1200 +8.6263000e+09 1.20425300e-02 7.81665300e-03            nan
       50 -1    0    0    0    0 +8.7913179926e-03 +1.3791932904e-02 +5.2882164694e+00 5.2882441195e+00 4.9935713700e-03 0.0000e+00 0.0000e+00
       11 -1    0    0    0    0 -2.0763733209e-19 -3.2574412108e-19 -1.2489949290e-16 5.1100000000e-04 5.1099893000e-04 0.0000e+00 1.0000e+00
       50  1    1    2    0    0 +3.3071224566e-03 +3.8781842946e-03 +5.1679904765e+00 5.1679954023e+00 4.9935713700e-03 0.0000e+00 0.0000e+00
       11  1    1    2    0    0 +5.4841955360e-03 +9.9137486097e-03 +1.2022599289e-01 1.2075971720e-01 5.1099893000e-04 0.0000e+00 1.0000e+00
<vert_displacement>
38.243411822584108
</vert_displacement>
</event>
<event>
 4   1200 +8.6263000e+09 1.60600500e-02 7.81665300e-03            nan
       50 -1    0    0    0    0 -6.2126864616e-03 -4.6575558439e-03 +3.3401180805e+00 3.3401308384e+00 4.9935713700e-03 0.0000e+00 0.0000e+00
       11 -1    0    0    0    0 -1.7423702946e-19 -1.3062283117e-19 +9.3674814589e-17 5.1100000000e-04 5.1099893000e-04 0.0000e+00 1.0000e+00
       50  1    1    2    0    0 -3.6447458355e-03 +1.0803350658e-02 +3.0938408624e+00 3.0938659011e+00 4.9935713700e-03 0.0000e+00 0.0000e+00
       11  1    1    2    0    0 -2.5679406261e-03 -1.5460906502e-02 +2.4627721811e-01 2.4677593729e-01 5.1099893000e-04 0.0000e+00 1.0000e+00
<vert_displacement>
97.972464046475039
</vert_displacement>
</event>
<event>
 4   1200 +8.6263000e+09 4.61861700e-02 7.81665300e-03            nan
       50 -1    0    0    0    0 +1.3062739932e-02 -2.0444413181e-02 +9.9411223977e+00 9.9411532566e+00 4.9935713700e-03 0.0000e+00 0.0000e+00
       11 -1    0    0    0    0 -7.6589123502e-19 +1.1986916177e-18 -5.8286535215e-16 5.1100000000e-04 5.1099893000e-04 0.0000e+00 1.0000e+00
       50  1    1    2    0    0 -3.2561957397e-02 +4.6196852349e-03 +7.0145966135e+00 7.0146754884e+00 4.9935713700e-03 0.0000e+00 0.0000e+00
       11  1    1    2    0    0 +4.5624697329e-02 -2.5064098416e-02 +2.9265257842e+00 2.9269887682e+00 5.1099893000e-04 0.0000e+00 1.0000e+00
<vert_displacement>
397.47216455360160
</vert_displacement>
</event>
<event>
 4   1200 +8.6263000e+09 5.40952900e-03 7.81665300e-03            nan
       50 -1    0    0    0    0 +1.1958369664e-02 -1.3522961211e-02 +6.4714890126e+00 6.4715161168e+00 4.9935713700e-03 0.0000e+00 0.0000e+00
       11 -1    0    0    0    0 -1.0770493423e-18 +1.2179667370e-18 -5.8286482027e-16 5.1100000000e-04 5.1099893000e-04 0.0000e+00 1.0000e+00
       50  1    1    2    0    0 +1.3063717168e-02 -1.1756811850e-02 +6.4672534227e+00 6.4672792310e+00 4.9935713700e-03 0.0000e+00 0.0000e+00
       11  1    1    2    0    0 -1.1053475045e-03 -1.7661493610e-03 +4.2355899884e-03 4.7478857534e-03 5.1099893000e-04 0.0000e+00 1.0000e+00
<vert_displacement>
39.806755529019014
</vert_displacement>
</event>
<event>
 4   1200 +8.6263000e+09 1.58795800e-02 7.81665300e-03            nan
       50 -1    0    0    0    0 +9.9050806209e-03 -1.1989168998e-03 +3.2136987094e+00 3.2137180770e+00 4.9935713700e-03 0.0000e+00 0.0000e+00
       11 -1    0    0    0    0 +1.0051684960e-18 -1.2166619769e-19 +3.2612644176e-16 5.1100000000e-04 5.1099893000e-04 0.0000e+00 1.0000e+00
       50  1    1    2    0    0 -5.9090878930e-03 -9.3392889166e-04 +2.9732430980e+00 2.9732533099e+00 4.9935713700e-03 0.0000e+00 0.0000e+00
       11  1    1    2    0    0 +1.5814168514e-02 -2.6498800816e-04 +2.4045561142e-01 2.4097576710e-01 5.1099893000e-04 0.0000e+00 1.0000e+00
<vert_displacement>
404.14996014302892
</vert_displacement>
</event>
<event>
 4   1200 +8.6263000e+09 1.09239900e-02 7.81665300e-03            nan
       50 -1    0    0    0    0 -6.7850429509e-03 +3.2006962442e-02 +2.9432248335e+01 2.9432266944e+01 4.9935713700e-03 0.0000e+00 0.0000e+00
       11 -1    0    0    0    0 -4.8948632957e-19 +2.3090451571e-18 +2.1233002227e-15 5.1100000000e-04 5.1099893000e-04 0.0000e+00 1.0000e+00
       50  1    1    2    0    0 +2.9509178055e-03 +3.2061979604e-02 +2.9339591227e+01 2.9339609319e+01 4.9935713700e-03 0.0000e+00 0.0000e+00
       11  1    1    2    0    0 -9.7359607564e-03 -5.5017162307e-05 +9.2657107070e-02 9.3168624382e-02 5.1099893000e-04 0.0000e+00 1.0000e+00
<vert_displacement>
468.22165570904349
</vert_displacement>
</event>
<event>
 4   1200 +8.6263000e+09 1.86564400e-02 7.81665300e-03            nan
       50 -1    0    0    0    0 +5.3129973194e-02 -9.7327681074e-03 +1.8850419784e+01 1.8850497831e+01 4.9935713700e-03 0.0000e+00 0.0000e+00
       11 -1    0    0    0    0 +7.4317421256e-19 -1.3614052181e-19 +2.6367688589e-16 5.1100000000e-04 5.1099893000e-04 0.0000e+00 1.0000e+00
       50  1    1    2    0    0 +3.4249904414e-02 -9.8498858766e-03 +1.8528795643e+01 1.8528830589e+01 4.9935713700e-03 0.0000e+00 0.0000e+00
       11  1    1    2    0    0 +1.8880068781e-02 +1.1711776920e-04 +3.2162414031e-01 3.2217824176e-01 5.1099893000e-04 0.0000e+00 1.0000e+00
<vert_displacement>
430.50078455046963
</vert_displacement>
</event>
<event>
 4   1200 +8.6263000e+09 1.67184500e-02 7.81665300e-03            nan
       50 -1    0    0    0    0 -5.8302783459e-04 -6.0819374835e-03 +3.1644763006e+00 3.1644861388e+00 4.9935713700e-03 0.0000e+00 0.0000e+00
       11 -1    0    0    0    0 +6.8395993331e-20 +7.1348249755e-19 -3.7123013192e-16 5.1100000000e-04 5.1099893000e-04 0.0000e+00 1.0000e+00
       50  1    1    2    0    0 +3.6265540073e-03 +9.8460060586e-03 +2.8916732245e+00 2.8916965728e+00 4.9935713700e-03 0.0000e+00 0.0000e+00
       11  1    1    2    0    0 -4.2095818419e-03 -1.5927943542e-02 +2.7280307602e-01 2.7330056599e-01 5.1099893000e-04 0.0000e+00 1.0000e+00
<vert_displacement>
80.223463992310315
</vert_displacement>
</event>
<event>
 4   1200 +8.6263000e+09 1.84426300e-02 7.81665300e-03            nan
       50 -1    0    0    0    0 -7.8359116706e-02 +5.4247125658e-02 +3.3606173738e+01 3.3606309246e+01 4.9935713700e-03 0.0000e+00 0.0000e+00
       11 -1    0    0    0    0 +6.2451988199e-18 -4.3234801435e-18 -2.6784022765e-15 5.1100000000e-04 5.1099893000e-04 0.0000e+00 1.0000e+00
       50  1    1    2    0    0 -7.6929438474e-02 +7.1484373187e-02 +3.3294847923e+01 3.3295013911e+01 4.9935713700e-03 0.0000e+00 0.0000e+00
       11  1    1    2    0    0 -1.4296782324e-03 -1.7237247529e-02 +3.1132581494e-01 3.1180633548e-01 5.1099893000e-04 0.0000e+00 1.0000e+00
<vert_displacement>
138.18531170903753
</vert_displacement>
</event>
<event>
 4   1200 +8.6263000e+09 8.70362200e-03 7.81665300e-03            nan
       50 -1    0    0    0    0 -4.0734069076e-03 -9.1134133002e-03 +9.4330182286e+00 9.4330248322e+00 4.9935713700e-03 0.0000e+00 0.0000e+00
       11 -1    0    0    0    0 -3.5956579557e-19 -8.0445479126e-19 +8.3266680224e-16 5.1100000000e-04 5.1099893000e-04 0.0000e+00 1.0000e+00
       50  1    1    2    0    0 +2.1821749629e-03 -5.6075785772e-03 +9.3830326054e+00 9.3830358635e+00 4.9935713700e-03 0.0000e+00 0.0000e+00
       11  1    1    2    0    0 -6.2555818706e-03 -3.5058347230e-03 +4.9985623224e-02 5.0499968620e-02 5.1099893000e-04 0.0000e+00 1.0000e+00
<vert_displacement>
144.96252607006213
</vert_displacement>
</event>
<event>
 4   1200 +8.6263000e+09 2.38797100e-02 7.81665300e-03            nan
       50 -1    0    0    0    0 -2.9114213640e-02 +2.4161127843e-02 +1.3938129803e+01 1.3938182045e+01 4.9935713700e-03 0.0000e+00 0.0000e+00
       11 -1    0    0    0    0 +5.3627917317e-19 -4.4504412253e-19 -2.5673812862e-16 5.1100000000e-04 5.1099893000e-04 0.0000e+00 1.0000e+00
       50  1    1    2    0    0 -2.4423060210e-02 +1.1436827048e-04 +1.3382392751e+01 1.3382415969e+01 4.9935713700e-03 0.0000e+00 0.0000e+00
       11  1    1    2    0    0 -4.6911534294e-03 +2.4046759573e-02 +5.5573705210e-01 5.5627707643e-01 5.1099893000e-04 0.0000e+00 1.0000e+00
<vert_displacement>
186.61245906265063
</vert_displacement>
</event>
<event>
 4   1200 +8.6263000e+09 6.32328900e-03 7.81665300e-03            nan
       50 -1    0    0    0    0 +0.0000000000e+00 +0.0000000000e+00 +6.4890480409e+01 6.4890480601e+01 4.9935713700e-03 0.0000e+00 0.0000e+00
       11 -1    0    0    0    0 +0.0000000000e+00 +0.0000000000e+00 -3.3029134983e-15 5.1100000000e-04 5.1099893000e-04 0.0000e+00 -1.0000e+00
       50  1    1    2    0    0 -2.7013837043e-03 +2.7840182756e-03 +6.4875752653e+01 6.4875752961e+01 4.9935713700e-03 0.0000e+00 0.0000e+00
       11  1    1    2    0    0 +2.7013837043e-03 -2.7840182756e-03 +1.4727755968e-02 1.5238639947e-02 5.1099893000e-04 0.0000e+00 -1.0000e+00
<vert_displacement>
403.56236696243286
</vert_displacement>
</event>
<event>
 4   1200 +8.6263000e+09 1.04945900e-02 7.81665300e-03            nan
       50 -1    0    0    0    0 -3.4654099384e-03 +1.4432058755e-02 +1.0003064060e+01 1.0003076317e+01 4.9935713700e-03 0.0000e+00 0.0000e+00
       11 -1    0    0    0    0 -3.6298466927e-19 +1.5116872657e-18 +1.0477718261e-15 5.1100000000e-04 5.1099893000e-04 0.0000e+00 1.0000e+00
       50  1    1    2    0    0 +5.7918328921e-03 +1.4104283597e-02 +9.9189882785e+00 9.9190012542e+00 4.9935713700e-03 0.0000e+00 0.0000e+00
       11  1    1    2    0    0 -9.2572428305e-03 +3.2777515862e-04 +8.4075781105e-02 8.4586063094e-02 5.1099893000e-04 0.0000e+00 1.0000e+00
<vert_displacement>
297.29732814706352
</vert_displacement>
</event>
<event>
 4   1200 +8.6263000e+09 5.48626300e-03 7.81665300e-03            nan
       50 -1    0    0    0    0 +1.1288007501e-02 -1.8553126861e-02 +1.0982853427e+01 1.0982876034e+01 4.9935713700e-03 0.0000e+00 0.0000e+00
       11 -1    0    0    0    0 -2.5674027408e-19 +4.2198190202e-19 -2.4979969218e-16 5.1100000000e-04 5.1099893000e-04 0.0000e+00 1.0000e+00
       50  1    1    2    0    0 +1.3069664454e-02 -1.9948321546e-02 +1.0977794485e+01 1.0977821526e+01 4.9935713700e-03 0.0000e+00 0.0000e+00
       11  1    1    2    0    0 -1.7816569530e-03 +1.3951946849e-03 +5.0589421445e-03 5.5655085333e-03 5.1099893000e-04 0.0000e+00 1.0000e+00
<vert_displacement>
134.60637122490084
</vert_displacement>
</event>
<event>
 4   1200 +8.6263000e+09 7.85417500e-03 7.81665300e-03            nan
       50 -1    0    0    0    0 +4.8657963897e-03 -1.9942592135e-02 +1.0910961890e+01 1.0910982342e+01 4.9935713700e-03 0.0000e+00 0.0000e+00
       11 -1    0    0    0    0 +1.4234368452e-19 -5.8339926623e-19 +3.1918855468e-16 5.1100000000e-04 5.1099893000e-04 0.0000e+00 -1.0000e+00
       50  1    1    2    0    0 +1.0910447487e-02 -2.0017036128e-02 +1.0874876550e+01 1.0874901591e+01 4.9935713700e-03 0.0000e+00 0.0000e+00
       11  1    1    2    0    0 -6.0446510972e-03 +7.4443992347e-05 +3.6085340151e-02 3.6591751017e-02 5.1099893000e-04 0.0000e+00 -1.0000e+00
<vert_displacement>
435.95194484535409
</vert_displacement>
</event>
<event>
 4   1200 +8.6263000e+09 3.24350400e-02 7.81665300e-03            nan
       50 -1    0    0    0    0 +4.8477030618e-02 +6.6035227290e-03 +3.1606448149e+01 3.1606486409e+01 4.9935713700e-03 0.0000e+00 0.0000e+00
       11 -1    0    0    0    0 -3.8739269476e-18 -5.2770485987e-19 -2.5257543550e-15 5.1100000000e-04 5.1099893000e-04 0.0000e+00 1.0000e+00
       50  1    1    2    0    0 +7.7297981674e-02 -3.7146626607e-03 +3.0567208327e+01 3.0567306695e+01 4.9935713700e-03 0.0000e+00 0.0000e+00
       11  1    1    2    0    0 -2.8820951056e-02 +1.0318185390e-02 +1.0392398223e+00 1.0396907144e+00 5.1099893000e-04 0.0000e+00 1.0000e+00
<vert_displacement>
388.90491825116413
</vert_displacement>
</event>
<event>
 4   1200 +8.6263000e+09 1.35820300e-02 7.81665300e-03            nan
       50 -1    0    0    0    0 -4.2343055776e-02 -5.9408371295e-02 +2.4822429002e+01 2.4822536711e+01 4.9935713700e-03 0.0000e+00 0.0000e+00
       11 -1    0    0    0    0 +3.4089354572e-18 +4.7828221098e-18 -1.9983928134e-15 5.1100000000e-04 5.1099893000e-04 0.0000e+00 1.0000e+00
       50  1    1    2    0    0 -5.3863306771e-02 -5.4496601807e-02 +2.4665320299e+01 2.4665439820e+01 4.9935713700e-03 0.0000e+00 0.0000e+00
       11  1    1    2    0    0 +1.1520250994e-02 -4.9117694879e-03 +1.5710870247e-01 1.5760789058e-01 5.1099893000e-04 0.0000e+00 1.0000e+00
<vert_displacement>
272.79223599815720
</vert_displacement>
</event>
<event>
 4   1200 +8.6263000e+09 1.94181000e-02 7.81665300e-03            nan
       50 -1    0    0    0    0 -6.9297926159e-02 -7.6978385361e-03 +3.0028641237e+01 3.0028722599e+01 4.9935713700e-03 0.0000e+00 0.0000e+00
       11 -1    0    0    0    0 +5.2522752402e-18 +5.8343977932e-19 -2.2759510653e-15 5.1100000000e-04 5.1099893000e-04 0.0000e+00 1.0000e+00
       50  1    1    2    0    0 -5.2878131768e-02 +2.7976331178e-03 +2.9680078183e+01 2.9680125839e+01 4.9935713700e-03 0.0000e+00 0.0000e+00
       11  1    1    2    0    0 -1.6419794390e-02 -1.0495471654e-02 +3.4856305365e-01 3.4910775996e-01 5.1099893000e-04 0.0000e+00 1.0000e+00
<vert_displacement>
277.43166965172554
</vert_displacement>
</event>
<event>
 4   1200 +8.6263000e+09 1.94296500e-02 7.81665300e-03            nan
       50 -1    0    0    0    0 +9.6007724458e-03 -1.3688905402e-02 +9.9607034413e+00 9.9607187262e+00 4.9935713700e-03 0.0000e+00 0.0000e+00
       11 -1    0    0    0    0 +1.4379515770e-18 -2.0502499378e-18 +1.4918600875e-15 5.1100000000e-04 5.1099893000e-04 0.0000e+00 1.0000e+00
       50  1    1    2    0    0 +7.5444140860e-03 -3.1895886035e-02 +9.6027856005e+00 9.6028428338e+00 4.9935713700e-03 0.0000e+00 0.0000e+00
       11  1    1    2    0    0 +2.0563583598e-03 +1.8206980633e-02 +3.5791784084e-01 3.5838689243e-01 5.1099893000e-04 0.0000e+00 1.0000e+00
<vert_displacement>
94.420014725363643
</vert_displacement>
</event>
<event>
 4   1200 +8.6263000e+09 6.62516900e-03 7.81665300e-03            nan
       50 -1    0    0    0    0 +1.9837149510e-02 -8.8808863540e-04 +8.6234886630e+00 8.6235129709e+00 4.9935713700e-03 0.0000e+00 0.0000e+00
       11 -1    0    0    0    0 +2.3942892998e-18 -1.0718985184e-19 +1.0408313262e-15 5.1100000000e-04 5.1099893000e-04 0.0000e+00 1.0000e+00
       50  1    1    2    0    0 +2.4121923065e-02 -4.0719480480e-04 +8.6048884918e+00 8.6049237606e+00 4.9935713700e-03 0.0000e+00 0.0000e+00
       11  1    1    2    0    0 -4.2847735548e-03 -4.8089383059e-04 +1.8600171205e-02 1.9100210262e-02 5.1099893000e-04 0.0000e+00 1.0000e+00
<vert_displacement>
431.89365923337209
</vert_displacement>
</event>
<event>
 4   1200 +8.6263000e+09 5.24880000e-03 7.81665300e-03            nan
       50 -1    0    0    0    0 +3.7286100686e-02 -6.0532068983e-03 +2.0219873006e+01 2.0219908907e+01 4.9935713700e-03 0.0000e+00 0.0000e+00
       11 -1    0    0    0    0 +3.3268359178e-19 -5.4009472045e-20 +1.8041092668e-16 5.1100000000e-04 5.1099893000e-04 0.0000e+00 -1.0000e+00
       50  1    1    2    0    0 +3.7275630226e-02 -7.6692637020e-03 +2.0217314274e+01 2.0217350709e+01 4.9935713700e-03 0.0000e+00 0.0000e+00
       11  1    1    2    0    0 +1.0470460525e-05 +1.6160568037e-03 +2.5587322641e-03 3.0691985809e-03 5.1099893000e-04 0.0000e+00 -1.0000e+00
<vert_displacement>
380.95648009729837
</vert_displacement>
</event>
<event>
 4   1200 +8.6263000e+09 1.10456600e-02 7.81665300e-03            nan
       50 -1    0    0    0    0 -4.9798031188e-03 +7.8197033456e-02 +3.8121834104e+01 3.8121914956e+01 4.9935713700e-03 0.0000e+00 0.0000e+00
       11 -1    0    0    0    0 -4.3507983277e-20 +6.8319874155e-19 +3.3306620384e-16 5.1100000000e-04 5.1099893000e-04 0.0000e+00 1.0000e+00
       50  1    1    2    0    0 -6.0612608179e-03 +8.7793231653e-02 +3.8026593559e+01 3.8026695715e+01 4.9935713700e-03 0.0000e+00 0.0000e+00
       11  1    1    2    0    0 +1.0814576991e-03 -9.5961981965e-03 +9.5240544618e-02 9.5730240936e-02 5.1099893000e-04 0.0000e+00 1.0000e+00
<vert_displacement>
88.208533883460461
</vert_displacement>
</event>
<event>
 4   1200 +8.6263000e+09 1.42176800e-02 7.81665300e-03            nan
       50 -1    0    0    0    0 +1.7038722528e-02 -2.1056441078e-02 +1.0349163482e+01 1.0349200134e+01 4.9935713700e-03 0.0000e+00 0.0000e+00
       11 -1    0    0    0    0 -3.0844966791e-19 +3.8118187835e-19 -1.8734949372e-16 5.1100000000e-04 5.1099893000e-04 0.0000e+00 1.0000e+00
       50  1    1    2    0    0 +5.3619640624e-03 -1.3801309226e-02 +1.0172781944e+01 1.0172793945e+01 4.9935713700e-03 0.0000e+00 0.0000e+00
       11  1    1    2    0    0 +1.1676758465e-02 -7.2551318525e-03 +1.7638153810e-01 1.7691718890e-01 5.1099893000e-04 0.0000e+00 1.0000e+00
<vert_displacement>
194.88313487975668
</vert_displacement>
</event>
<event>
 4   1200 +8.6263000e+09 5.52131000e-03 7.81665300e-03            nan
       50 -1    0    0    0    0 -1.5064708936e-02 +2.1778585219e-02 +1.1171220365e+01 1.1171252868e+01 4.9935713700e-03 0.0000e+00 0.0000e+00
       11 -1    0    0    0    0 -1.0012278720e-18 +1.4474442638e-18 +7.4245956171e-16 5.1100000000e-04 5.1099893000e-04 0.0000e+00 1.0000e+00
       50  1    1    2    0    0 -1.3211556629e-02 +2.3231563633e-02 +1.1165787463e+01 1.1165820563e+01 4.9935713700e-03 0.0000e+00 0.0000e+00
       11  1    1    2    0    0 -1.8531523068e-03 -1.4529784136e-03 +5.4329019674e-03 5.9433040841e-03 5.1099893000e-04 0.0000e+00 1.0000e+00
<vert_displacement>
343.72491849241970
</vert_displacement>
</event>
<event>
 4   1200 +8.6263000e+09 9.57936000e-03 7.81665300e-03            nan
       50 -1    0    0    0    0 -2.1579182614e-02 -2.0301602090e-03 +1.1779131448e+01 1.1779152448e+01 4.9935713700e-03 0.0000e+00 0.0000e+00
       11 -1    0    0    0    0 +1.3093280098e-18 +1.2318101540e-19 -7.1470486215e-16 5.1100000000e-04 5.1099893000e-04 0.0000e+00 1.0000e+00
       50  1    1    2    0    0 -2.9206457302e-02 -4.6266212585e-03 +1.1713356382e+01 1.1713394772e+01 4.9935713700e-03 0.0000e+00 0.0000e+00
       11  1    1    2    0    0 +7.6272746875e-03 +2.5964610496e-03 +6.5775066096e-02 6.6268675624e-02 5.1099893000e-04 0.0000e+00 1.0000e+00
<vert_displacement>
101.15950543884209
</vert_displacement>
</event>
<event>
 4   1200 +8.6263000e+09 1.15125600e-02 7.81665300e-03            nan
       50 -1    0    0    0    0 -1.4404705439e-02 +4.4606996313e-02 +4.4413504194e+01 4.4413529212e+01 4.9935713700e-03 0.0000e+00 0.0000e+00
       11 -1    0    0    0    0 -3.6908228026e-19 +1.1429356875e-18 +1.1379779664e-15 5.1100000000e-04 5.1099893000e-04 0.0000e+00 1.0000e+00
       50  1    1    2    0    0 -3.9988915457e-03 +4.4683906175e-02 +4.4307968382e+01 4.4307991375e+01 4.9935713700e-03 0.0000e+00 0.0000e+00
       11  1    1    2    0    0 -1.0405813893e-02 -7.6909862286e-05 +1.0553581248e-01 1.0604883646e-01 5.1099893000e-04 0.0000e+00 1.0000e+00
<vert_displacement>
318.44943616828300
</vert_displacement>
</event>
<event>
 4   1200 +8.6263000e+09 1.63764200e-02 7.81665300e-03            nan
       50 -1    0    0    0    0 -1.2319169116e-02 -1.6543277247e-02 +8.4242225467e+00 8.4242492777e+00 4.9935713700e-03 0.0000e+00 0.0000e+00
       11 -1    0    0    0    0 -6.7985349416e-19 -9.1296780940e-19 +4.6490449804e-16 5.1100000000e-04 5.1099893000e-04 0.0000e+00 1.0000e+00
       50  1    1    2    0    0 -3.0688151869e-03 -3.2482888585e-03 +8.1790753019e+00 8.1790780470e+00 4.9935713700e-03 0.0000e+00 0.0000e+00
       11  1    1    2    0    0 -9.2503539287e-03 -1.3294988388e-02 +2.4514724479e-01 2.4568223077e-01 5.1099893000e-04 0.0000e+00 1.0000e+00
<vert_displacement>
175.79624596403582
</vert_displacement>
</event>
<event>
 4   1200 +8.6263000e+09 8.38195100e-03 7.81665300e-03            nan
       50 -1    0    0    0    0 -4.0225823654e-02 +3.9770810600e-03 +3.3480536082e+01 3.3480560856e+01 4.9935713700e-03 0.0000e+00 0.0000e+00
       11 -1    0    0    0    0 +8.7203548433e-18 -8.6217148423e-19 -7.2580777337e-15 5.1100000000e-04 5.1099893000e-04 0.0000e+00 1.0000e+00
       50  1    1    2    0    0 -3.4831382725e-02 -1.2624917835e-04 +3.3436137670e+01 3.3436156185e+01 4.9935713700e-03 0.0000e+00 0.0000e+00
       11  1    1    2    0    0 -5.3944409285e-03 +4.1033302384e-03 +4.4398412238e-02 4.4915670329e-02 5.1099893000e-04 0.0000e+00 1.0000e+00
<vert_displacement>
454.82764014147801
</vert_displacement>
</event>
<event>
 4   1200 +8.6263000e+09 2.23087700e-02 7.81665300e-03            nan
       50 -1    0    0    0    0 +1.2886656213e-02 +1.0938418775e-02 +5.8733027191e+00 5.8733291650e+00 4.9935713700e-03 0.0000e+00 0.0000e+00
       11 -1    0    0    0    0 -1.5376860677e-18 -1.3052147799e-18 -7.0082538196e-16 5.1100000000e-04 5.1099893000e-04 0.0000e+00 1.0000e+00
       50  1    1    2    0    0 +1.7491014869e-02 +3.0973154930e-02 +5.3667916647e+00 5.3669118662e+00 4.9935713700e-03 0.0000e+00 0.0000e+00
       11  1    1    2    0    0 -4.6043586557e-03 -2.0034736155e-02 +5.0651105437e-01 5.0692829877e-01 5.1099893000e-04 0.0000e+00 1.0000e+00
<vert_displacement>
194.59791603828032
</vert_displacement>
</event>
<event>
 4   1200 +8.6263000e+09 9.94519900e-03 7.81665300e-03            nan
       50 -1    0    0    0    0 +5.1346205576e-02 +7.0541603203e-02 +2.9656805739e+01 2.9656934503e+01 4.9935713700e-03 0.0000e+00 0.0000e+00
       11 -1    0    0    0    0 +4.3008607068e-18 +5.9087055414e-18 +2.4841132673e-15 5.1100000000e-04 5.1099893000e-04 0.0000e+00 1.0000e+00
       50  1    1    2    0    0 +5.7431983775e-02 +7.6317893213e-02 +2.9584223346e+01 2.9584377952e+01 4.9935713700e-03 0.0000e+00 0.0000e+00
       11  1    1    2    0    0 -6.0857781988e-03 -5.7762900107e-03 +7.2582392957e-02 7.3067551689e-02 5.1099893000e-04 0.0000e+00 1.0000e+00
<vert_displacement>
473.54619991660888
</vert_displacement>
</event>
<event>
 4   1200 +8.6263000e+09 1.04598900e-02 7.81665300e-03            nan
       50 -1    0    0    0    0 -3.8117498533e-03 -8.2449590301e-03 +3.5234215788e+00 3.5234368259e+00 4.9935713700e-03 0.0000e+00 0.0000e+00
       11 -1    0    0    0    0 -1.8766729539e-19 -4.0593145440e-19 +1.7347177114e-16 5.1100000000e-04 5.1099893000e-04 0.0000e+00 -1.0000e+00
       50  1    1    2    0    0 +3.0063368093e-03 -1.7834838366e-03 +3.4387257037e+00 3.4387311061e+00 4.9935713700e-03 0.0000e+00 0.0000e+00
       11  1    1    2    0    0 -6.8180866626e-03 -6.4614751936e-03 +8.4695875038e-02 8.5216719814e-02 5.1099893000e-04 0.0000e+00 -1.0000e+00
<vert_displacement>
323.86195992706951
</vert_displacement>
</event>
<event>
 4   1200 +8.6263000e+09 1.75958800e-02 7.81665300e-03            nan
       50 -1    0    0    0    0 +1.5285087686e-02 -4.7313708910e-02 +1.9648157477e+01 1.9648221024e+01 4.9935713700e-03 0.0000e+00 0.0000e+00
       11 -1    0    0    0    0 +2.2779669129e-18 -7.0512558149e-18 +2.9282038515e-15 5.1100000000e-04 5.1099893000e-04 0.0000e+00 1.0000e+00
       50  1    1    2    0    0 +2.9623869663e-02 -5.5160956044e-02 +1.9365497789e+01 1.9365599651e+01 4.9935713700e-03 0.0000e+00 0.0000e+00
       11  1    1    2    0    0 -1.4338781977e-02 +7.8472471333e-03 +2.8265968786e-01 2.8313237225e-01 5.1099893000e-04 0.0000e+00 1.0000e+00
<vert_displacement>
114.65054952876319
</vert_displacement>
</event>
<event>
 4   1200 +8.6263000e+09 6.17514600e-03 7.81665300e-03            nan
       50 -1    0    0    0    0 +6.1568787934e-04 +1.7248703279e-03 +9.9399777851e-01 9.9401200883e-01 4.9935713700e-03 0.0000e+00 0.0000e+00
       11 -1    0    0    0    0 -4.5128822205e-20 -1.2642991517e-19 -7.2858262319e-17 5.1100000000e-04 5.1099893000e-04 0.0000e+00 1.0000e+00
       50  1    1    2    0    0 -2.7949116536e-03 +2.9748404694e-03 +9.8090156718e-01 9.8092277038e-01 4.9935713700e-03 0.0000e+00 0.0000e+00
       11  1    1    2    0    0 +3.4105995329e-03 -1.2499701415e-03 +1.3096211335e-02 1.3600238445e-02 5.1099893000e-04 0.0000e+00 1.0000e+00
<vert_displacement>
1.0415120267012445
</vert_displacement>
</event>
<event>
 4   1200 +8.6263000e+09 8.33127400e-03 7.81665300e-03            nan
       50 -1    0    0    0    0 +2.4013953049e-03 -3.7346408267e-03 +9.7636659386e+00 9.7636682251e+00 4.9935713700e-03 0.0000e+00 0.0000e+00
       11 -1    0    0    0    0 +5.1199085335e-20 -7.9624622399e-20 +2.0816679559e-16 5.1100000000e-04 5.1099893000e-04 0.0000e+00 1.0000e+00
       50  1    1    2    0    0 +7.8013254009e-03 +1.8065587453e-04 +9.7199506114e+00 9.7199550265e+00 4.9935713700e-03 0.0000e+00 0.0000e+00
       11  1    1    2    0    0 -5.3999300960e-03 -3.9152967013e-03 +4.3715327152e-02 4.4224198593e-02 5.1099893000e-04 0.0000e+00 1.0000e+00
<vert_displacement>
369.43791156369576
</vert_displacement>
</event>
<event>
 4   1200 +8.6263000e+09 1.61136100e-02 7.81665300e-03            nan
       50 -1    0    0    0    0 -8.7958722738e-05 -1.5107229914e-03 +1.5776803137e+00 1.5776889421e+00 4.9935713700e-03 0.0000e+00 0.0000e+00
       11 -1    0    0    0    0 +3.0948524055e-21 +5.3155213472e-20 -5.5511125695e-17 5.1100000000e-04 5.1099893000e-04 0.0000e+00 1.0000e+00
       50  1    1    2    0    0 -1.5279437490e-02 -3.1015447771e-03 +1.2973819443e+00 1.2974852315e+00 4.9935713700e-03 0.0000e+00 0.0000e+00
       11  1    1    2    0    0 +1.5191478768e-02 +1.5908217857e-03 +2.8029836935e-01 2.8071471055e-01 5.1099893000e-04 0.0000e+00 1.0000e+00
<vert_displacement>
104.94874775223347
</vert_displacement>
</event>
<event>
 4   1200 +8.6263000e+09 6.96187400e-03 7.81665300e-03            nan
       50 -1    0    0    0    0 -4.1184123728e-03 +3.0759578344e-02 +1.2605706290e+01 1.2605745480e+01 4.9935713700e-03 0.0000e+00 0.0000e+00
       11 -1    0    0    0    0 -3.8085604992e-19 +2.8445358174e-18 +1.1657306431e-15 5.1100000000e-04 5.1099893000e-04 0.0000e+00 1.0000e+00
       50  1    1    2    0    0 -3.9382198660e-03 +3.5551173242e-02 +1.2582625975e+01 1.2582677806e+01 4.9935713700e-03 0.0000e+00 0.0000e+00
       11  1    1    2    0    0 -1.8019250682e-04 -4.7915948983e-03 +2.3080314724e-02 2.3578674659e-02 5.1099893000e-04 0.0000e+00 1.0000e+00
<vert_displacement>
120.97843890794951
</vert_displacement>
</event>
<event>
 4   1200 +8.6263000e+09 3.06985700e-02 7.81665300e-03            nan
       50 -1    0    0    0    0 +2.5327126568e-02 -2.6405500074e-02 +1.3050302575e+01 1.3050354821e+01 4.9935713700e-03 0.0000e+00 0.0000e+00
       11 -1    0    0    0    0 +1.2119826126e-18 -1.2635861743e-18 +6.2449799694e-16 5.1100000000e-04 5.1099893000e-04 0.0000e+00 1.0000e+00
       50  1    1    2    0    0 +1.3291332233e-02 +4.0942896322e-03 +1.2080403790e+01 1.2080412827e+01 4.9935713700e-03 0.0000e+00 0.0000e+00
       11  1    1    2    0    0 +1.2035794335e-02 -3.0499789706e-02 +9.6989878567e-01 9.7045299375e-01 5.1099893000e-04 0.0000e+00 1.0000e+00
<vert_displacement>
276.74035713836571
</vert_displacement>
</event>
<event>
 4   1200 +8.6263000e+09 5.41976800e-03 7.81665300e-03            nan
       50 -1    0    0    0    0 +1.5898153616e-02 +6.5979666980e-03 +6.4577459590e+00 6.4577708299e+00 4.9935713700e-03 0.0000e+00 0.0000e+00
       11 -1    0    0    0    0 +1.1616180448e-18 +4.8208850917e-19 +4.7184310931e-16 5.1100000000e-04 5.1099893000e-04 0.0000e+00 1.0000e+00
       50  1    1    2    0    0 +1.4718188896e-02 +8.3459395049e-03 +6.4534011852e+00 6.4534252977e+00 4.9935713700e-03 0.0000e+00 0.0000e+00
       11  1    1    2    0    0 +1.1799647201e-03 -1.7479728069e-03 +4.3447737531e-03 4.8565321522e-03 5.1099893000e-04 0.0000e+00 1.0000e+00
<vert_displacement>
317.66071510717705
</vert_displacement>
</event>
<event>
 4   1200 +8.6263000e+09 6.52015800e-03 7.81665300e-03            nan
       50 -1    0    0    0    0 -3.6555440048e-02 -1.9155843556e-02 +1.2644537055e+01 1.2644605392e+01 4.9935713700e-03 0.0000e+00 0.0000e+00
       11 -1    0    0    0    0 -2.1464500889e-18 -1.1247864080e-18 +7.4245769303e-16 5.1100000000e-04 5.1099893000e-04 0.0000e+00 -1.0000e+00
       50  1    1    2    0    0 -3.4577417485e-02 -1.5407051626e-02 +1.2627325820e+01 1.2627383548e+01 4.9935713700e-03 0.0000e+00 0.0000e+00
       11  1    1    2    0    0 -1.9780225637e-03 -3.7487919306e-03 +1.7211235297e-02 1.7732843950e-02 5.1099893000e-04 0.0000e+00 -1.0000e+00
<vert_displacement>
349.21435754698325
</vert_displacement>
</event>
<event>
 4   1200 +8.6263000e+09 5.80624800e-03 7.81665300e-03            nan
       50 -1    0    0    0    0 -7.8113735386e-04 -1.3354517415e-02 +6.9678050063e+00 6.9678196371e+00 4.9935713700e-03 0.0000e+00 0.0000e+00
       11 -1    0    0    0    0 +4.1228424033e-20 +7.0485133506e-19 -3.6776069914e-16 5.1100000000e-04 5.1099893000e-04 0.0000e+00 1.0000e+00
       50  1    1    2    0    0 -2.2914620351e-03 -1.0789950786e-02 +6.9592106326e+00 6.9592211660e+00 4.9935713700e-03 0.0000e+00 0.0000e+00
       11  1    1    2    0    0 +1.5103246812e-03 -2.5645666292e-03 +8.5943737190e-03 9.1094710146e-03 5.1099893000e-04 0.0000e+00 1.0000e+00
<vert_displacement>
240.76340760902883
</vert_displacement>
</event>
<event>
 4   1200 +8.6263000e+09 1.64815700e-02 7.81665300e-03            nan
       50 -1    0    0    0    0 +2.5070575450e-02 +2.8423890917e-02 +1.1339850933e+01 1.1339915368e+01 4.9935713700e-03 0.0000e+00 0.0000e+00
       11 -1    0    0    0    0 -5.3692400720e-19 -6.0874029165e-19 -2.4285993020e-16 5.1100000000e-04 5.1099893000e-04 0.0000e+00 1.0000e+00
       50  1    1    2    0    0 +1.1616230218e-02 +1.8857215194e-02 +1.1093114379e+01 1.1093137612e+01 4.9935713700e-03 0.0000e+00 0.0000e+00
       11  1    1    2    0    0 +1.3454345233e-02 +9.5666757228e-03 +2.4673655391e-01 2.4728875600e-01 5.1099893000e-04 0.0000e+00 1.0000e+00
<vert_displacement>
470.70751235598880
</vert_displacement>
</event>
<event>
 4   1200 +8.6263000e+09 6.01984500e-03 7.81665300e-03            nan
       50 -1    0    0    0    0 +1.8380380860e-03 -7.6353834627e-02 +4.8984612988e+01 4.8984672784e+01 4.9935713700e-03 0.0000e+00 0.0000e+00
       11 -1    0    0    0    0 -1.1924770301e-19 +4.9536619858e-18 -3.1780095450e-15 5.1100000000e-04 5.1099893000e-04 0.0000e+00 1.0000e+00
       50  1    1    2    0    0 +4.8645271377e-03 -7.4873504412e-02 +4.8973553084e+01 4.8973610816e+01 4.9935713700e-03 0.0000e+00 0.0000e+00
       11  1    1    2    0    0 -3.0264890516e-03 -1.4803302143e-03 +1.1059903069e-02 1.1572968043e-02 5.1099893000e-04 0.0000e+00 1.0000e+00
<vert_displacement>
241.47639718354060
</vert_displacement>
</event>
<event>
 4   1200 +8.6263000e+09 1.69731600e-02 7.81665300e-03            nan
       50 -1    0    0    0    0 +1.1122013722e-02 -1.3403455723e-03 +4.0609799911e+00 4.0609985126e+00 4.9935713700e-03 0.0000e+00 0.0000e+00
       11 -1    0    0    0    0 -3.4206896747e-19 +4.1223706193e-20 -1.2489961505e-16 5.1100000000e-04 5.1099893000e-04 0.0000e+00 1.0000e+00
       50  1    1    2    0    0 -4.1605873222e-03 +5.9731795489e-03 +3.7845716210e+00 3.7845819161e+00 4.9935713700e-03 0.0000e+00 0.0000e+00
       11  1    1    2    0    0 +1.5282601044e-02 -7.3135251212e-03 +2.7640837009e-01 2.7692759653e-01 5.1099893000e-04 0.0000e+00 1.0000e+00
<vert_displacement>
483.59375416671094
</vert_displacement>
</event>
<event>
 4   1200 +8.6263000e+09 1.68924100e-02 7.81665300e-03            nan
       50 -1    0    0    0    0 +3.3004614382e-02 -4.2409478061e-02 +1.6677597227e+01 1.6677684553e+01 4.9935713700e-03 0.0000e+00 0.0000e+00
       11 -1    0    0    0    0 +3.5702820160e-18 -4.5876553828e-18 +1.8041030493e-15 5.1100000000e-04 5.1099893000e-04 0.0000e+00 1.0000e+00
       50  1    1    2    0    0 +2.3364416879e-02 -5.5059087761e-02 +1.6418739854e+01 1.6418849556e+01 4.9935713700e-03 0.0000e+00 0.0000e+00
       11  1    1    2    0    0 +9.6401975031e-03 +1.2649609701e-02 +2.5885737239e-01 2.5934599746e-01 5.1099893000e-04 0.0000e+00 1.0000e+00
<vert_displacement>
89.479657608135540
</vert_displacement>
</event>
<event>
 4   1200 +8.6263000e+09 2.44906200e-02 7.81665300e-03            nan
       50 -1    0    0    0    0 -9.3763195880e-02 -7.9862224129e-03 +3.2314097132e+01 3.2314234537e+01 4.9935713700e-03 0.0000e+00 0.0000e+00
       11 -1    0    0    0    0 +4.7516099624e-18 +4.0471544963e-19 -1.6375720176e-15 5.1100000000e-04 5.1099893000e-04 0.0000e+00 1.0000e+00
       50  1    1    2    0    0 -6.8359554442e-02 -1.1186145573e-02 +3.1741522874e+01 3.1741598849e+01 4.9935713700e-03 0.0000e+00 0.0000e+00
       11  1    1    2    0    0 -2.5403641438e-02 +3.1999231605e-03 +5.7257425771e-01 5.7314668822e-01 5.1099893000e-04 0.0000e+00 1.0000e+00
<vert_displacement>
226.13685352375103
</vert_displacement>
</event>
<event>
 4   1200 +8.6263000e+09 6.38866800e-02 7.81665300e-03            nan
       50 -1    0    0    0    0 -1.0983403203e-02 -1.0123201092e-02 +1.9583830658e+01 1.9583836991e+01 4.9935713700e-03 0.0000e+00 0.0000e+00
       11 -1    0    0    0    0 -1.5410778862e-18 -1.4203831956e-18 +2.7478011867e-15 5.1100000000e-04 5.1099893000e-04 0.0000e+00 1.0000e+00
       50  1    1    2    0    0 +5.0865097092e-02 -3.1873962908e-02 +1.4047368363e+01 1.4047497502e+01 4.9935713700e-03 0.0000e+00 0.0000e+00
       11  1    1    2    0    0 -6.1848500295e-02 +2.1750761816e-02 +5.5364622950e+00 5.5368504890e+00 5.1099893000e-04 0.0000e+00 1.0000e+00
<vert_displacement>
36.909441955026715
</vert_displacement>
</event>
<event>
 4   1200 +8.6263000e+09 4.12224000e-02 7.81665300e-03            nan
       50 -1    0    0    0    0 -7.0591930363e-02 -4.0834467731e-02 +2.1769371267e+01 2.1769524592e+01 4.9935713700e-03 0.0000e+00 0.0000e+00
       11 -1    0    0    0    0 -8.6402756114e-18 -4.9980366570e-18 +2.6645165626e-15 5.1100000000e-04 5.1099893000e-04 0.0000e+00 1.0000e+00
       50  1    1    2    0    0 -3.2545648845e-02 -6.2660551210e-02 +1.9984596247e+01 1.9984721605e+01 4.9935713700e-03 0.0000e+00 0.0000e+00
       11  1    1    2    0    0 -3.8046281518e-02 +2.1826083479e-02 +1.7847750204e+00 1.7853139870e+00 5.1099893000e-04 0.0000e+00 1.0000e+00
<vert_displacement>
78.005920830194384
</vert_displacement>
</event>
<event>
 4   1200 +8.6263000e+09 1.30885000e-02 7.81665300e-03            nan
       50 -1    0    0    0    0 +6.4830730354e-03 -2.2925155692e-04 +3.6550909296e+00 3.6551000974e+00 4.9935713700e-03 0.0000e+00 0.0000e+00
       11 -1    0    0    0    0 +1.9692110967e-19 -6.9634370515e-21 +1.1102212760e-16 5.1100000000e-04 5.1099893000e-04 0.0000e+00 1.0000e+00
       50  1    1    2    0    0 +5.4573105574e-03 +1.1854644687e-02 +3.5057049989e+00 3.5057328463e+00 4.9935713700e-03 0.0000e+00 0.0000e+00
       11  1    1    2    0    0 +1.0257624779e-03 -1.2083896244e-02 +1.4938593069e-01 1.4987825107e-01 5.1099893000e-04 0.0000e+00 1.0000e+00
<vert_displacement>
31.022625475466644
</vert_displacement>
</event>
<event>
 4   1200 +8.6263000e+09 7.69172300e-03 7.81665300e-03            nan
       50 -1    0    0    0    0 -3.2730965842e-04 -3.0008436421e-03 +9.2492773364e+00 9.2492791770e+00 4.9935713700e-03 0.0000e+00 0.0000e+00
       11 -1    0    0    0    0 -1.8170754585e-20 -1.6659329160e-19 +5.1347812154e-16 5.1100000000e-04 5.1099893000e-04 0.0000e+00 1.0000e+00
       50  1    1    2    0    0 -1.3487542448e-03 -8.7502386881e-03 +9.2156610268e+00 9.2156666326e+00 4.9935713700e-03 0.0000e+00 0.0000e+00
       11  1    1    2    0    0 +1.0214445864e-03 +5.7493950459e-03 +3.3616309632e-02 3.4123544447e-02 5.1099893000e-04 0.0000e+00 1.0000e+00
<vert_displacement>
371.77496148246354
</vert_displacement>
</event>
<event>
 4   1200 +8.6263000e+09 5.17226500e-02 7.81665300e-03            nan
       50 -1    0    0    0    0 -4.9436230658e-02 +1.9337096807e-02 +1.7714663480e+01 1.7714743719e+01 4.9935713700e-03 0.0000e+00 0.0000e+00
       11 -1    0    0    0    0 +1.2393121702e-18 -4.8475984295e-19 -4.4408721600e-16 5.1100000000e-04 5.1099893000e-04 0.0000e+00 1.0000e+00
       50  1    1    2    0    0 +6.7558829706e-03 +3.6018991223e-02 +1.4558244654e+01 1.4558291636e+01 4.9935713700e-03 0.0000e+00 0.0000e+00
       11  1    1    2    0    0 -5.6192113629e-02 -1.6681894416e-02 +3.1564188265e+00 3.1569630832e+00 5.1099893000e-04 0.0000e+00 1.0000e+00
<vert_displacement>
324.26151186916650
</vert_displacement>
</event>
<event>
 4   1200 +8.6263000e+09 2.01505100e-02 7.81665300e-03            nan
       50 -1    0    0    0    0 +1.8007278058e-02 -1.2989379558e-02 +6.2944678699e+00 6.2945090108e+00 4.9935713700e-03 0.0000e+00 0.0000e+00
       11 -1    0    0    0    0 -1.1711933737e-18 +8.4482925285e-19 -4.0939219335e-16 5.1100000000e-04 5.1099893000e-04 0.0000e+00 1.0000e+00
       50  1    1    2    0    0 +3.2009112234e-02 +1.5534124433e-04 +5.8962282470e+00 5.8963172476e+00 4.9935713700e-03 0.0000e+00 0.0000e+00
       11  1    1    2    0    0 -1.4001834176e-02 -1.3144720802e-02 +3.9823962284e-01 3.9870276317e-01 5.1099893000e-04 0.0000e+00 1.0000e+00
<vert_displacement>
448.73162132524305
</vert_displacement>
</event>
<event>
 4   1200 +8.6263000e+09 1.19386000e-02 7.81665300e-03            nan
       50 -1    0    0    0    0 +4.1197961165e-03 +1.2746229017e-02 +9.5954287377e+00 9.5954393872e+00 4.9935713700e-03 0.0000e+00 0.0000e+00
       11 -1    0    0    0    0 +5.9584206361e-20 +1.8434745765e-19 +1.3877774285e-16 5.1100000000e-04 5.1099893000e-04 0.0000e+00 1.0000e+00
       50  1    1    2    0    0 +1.4728323984e-02 +1.0593996067e-02 +9.4789399854e+00 9.4789586632e+00 4.9935713700e-03 0.0000e+00 0.0000e+00
       11  1    1    2    0    0 -1.0608527867e-02 +2.1522329508e-03 +1.1648875225e-01 1.1699172403e-01 5.1099893000e-04 0.0000e+00 1.0000e+00
<vert_displacement>
351.20622764168911
</vert_displacement>
</event>
<event>
 4   1200 +8.6263000e+09 8.43139900e-03 7.81665300e-03            nan
       50 -1    0    0    0    0 -2.1783978817e-03 +1.8501680829e-03 +7.6439871677e-01 7.6442037028e-01 4.9935713700e-03 0.0000e+00 0.0000e+00
       11 -1    0    0    0    0 +4.9436131280e-21 -4.1987349053e-21 -1.7347113505e-18 5.1100000000e-04 5.1099893000e-04 0.0000e+00 1.0000e+00
       50  1    1    2    0    0 -1.4165518022e-03 +8.4979943085e-03 +7.1604005306e-01 7.1610929045e-01 4.9935713700e-03 0.0000e+00 0.0000e+00
       11  1    1    2    0    0 -7.6184607954e-04 -6.6478262256e-03 +4.8358663716e-02 4.8822079834e-02 5.1099893000e-04 0.0000e+00 1.0000e+00
<vert_displacement>
93.427901349291659
</vert_displacement>
</event>
<event>
 4   1200 +8.6263000e+09 2.77122100e-02 7.81665300e-03            nan
       50 -1    0    0    0    0 -5.7824491450e-03 -5.0817530105e-03 +7.7259296542e+00 7.7259351031e+00 4.9935713700e-03 0.0000e+00 0.0000e+00
       11 -1    0    0    0    0 -6.2320703915e-20 -5.4768907915e-20 +8.3266685513e-17 5.1100000000e-04 5.1099893000e-04 0.0000e+00 1.0000e+00
       50  1    1    2    0    0 -3.0055199329e-02 -1.5680765070e-02 +6.9130260520e+00 6.9131109735e+00 4.9935713700e-03 0.0000e+00 0.0000e+00
       11  1    1    2    0    0 +2.4272750184e-02 +1.0599012059e-02 +8.1290360218e-01 8.1333512959e-01 5.1099893000e-04 0.0000e+00 1.0000e+00
<vert_displacement>
149.19052973413707
</vert_displacement>
</event>
<event>
 4   1200 +8.6263000e+09 1.88937300e-02 7.81665300e-03            nan
       50 -1    0    0    0    0 -1.7864812372e-02 -1.9383801168e-02 +1.3346788212e+01 1.3346815178e+01 4.9935713700e-03 0.0000e+00 0.0000e+00
       11 -1    0    0    0    0 -5.6655349802e-19 -6.1472575968e-19 +4.2327170258e-16 5.1100000000e-04 5.1099893000e-04 0.0000e+00 1.0000e+00
       50  1    1    2    0    0 +1.9363689864e-04 -1.4226569710e-02 +1.3013581898e+01 1.3013590634e+01 4.9935713700e-03 0.0000e+00 0.0000e+00
       11  1    1    2    0    0 -1.8058449270e-02 -5.1572314581e-03 +3.3320631370e-01 3.3373554386e-01 5.1099893000e-04 0.0000e+00 1.0000e+00
<vert_displacement>
190.17711121304379
</vert_displacement>
</event>
<event>
 4   1200 +8.6263000e+09 9.98601600e-03 7.81665300e-03            nan
       50 -1    0    0    0    0 -1.8810374270e-02 +3.2588528364e-03 +7.3271142739e+00 7.3271408454e+00 4.9935713700e-03 0.0000e+00 0.0000e+00
       11 -1    0    0    0    0 +8.3724218596e-19 -1.4505022778e-19 -3.2612690653e-16 5.1100000000e-04 5.1099893000e-04 0.0000e+00 1.0000e+00
       50  1    1    2    0    0 -2.7116906702e-02 +4.8374173727e-03 +7.2531635883e+00 7.2532176103e+00 4.9935713700e-03 0.0000e+00 0.0000e+00
       11  1    1    2    0    0 +8.3065324315e-03 -1.5785645362e-03 +7.3950685536e-02 7.4434235122e-02 5.1099893000e-04 0.0000e+00 1.0000e+00
<vert_displacement>
431.85923054679466
</vert_displacement>
</event>
<event>
 4   1200 +8.6263000e+09 1.50135700e-02 7.81665300e-03            nan
       50 -1    0    0    0    0 -1.8826657405e-02 +1.5249518148e-02 +2.0102089006e+01 2.0102104227e+01 4.9935713700e-03 0.0000e+00 0.0000e+00
       11 -1    0    0    0    0 -2.7294255347e-19 +2.2108239041e-19 +2.9143333229e-16 5.1100000000e-04 5.1099893000e-04 0.0000e+00 1.0000e+00
       50  1    1    2    0    0 -5.0187209079e-03 +1.8959526406e-02 +1.9903983011e+01 1.9903993300e+01 4.9935713700e-03 0.0000e+00 0.0000e+00
       11  1    1    2    0    0 -1.3807936497e-02 -3.7100082579e-03 +1.9810599487e-01 1.9862192627e-01 5.1099893000e-04 0.0000e+00 1.0000e+00
<vert_displacement>
388.93519278260010
</vert_displacement>
</event>
<event>
 4   1200 +8.6263000e+09 1.12331200e-02 7.81665300e-03            nan
       50 -1    0    0    0    0 +1.7558994151e-02 -2.0804533411e-02 +8.1077482972e+00 8.1077955409e+00 4.9935713700e-03 0.0000e+00 0.0000e+00
       11 -1    0    0    0    0 +3.2609707944e-18 -3.8637165239e-18 +1.5057314889e-15 5.1100000000e-04 5.1099893000e-04 0.0000e+00 1.0000e+00
       50  1    1    2    0    0 +1.2258352893e-02 -2.9230802687e-02 +8.0074185489e+00 8.0074828417e+00 4.9935713700e-03 0.0000e+00 0.0000e+00
       11  1    1    2    0    0 +5.3006412576e-03 +8.4262692758e-03 +1.0032974834e-01 1.0082369927e-01 5.1099893000e-04 0.0000e+00 1.0000e+00
<vert_displacement>
485.74521784770332
</vert_displacement>
</event>
<event>
 4   1200 +8.6263000e+09 3.30540600e-02 7.81665300e-03            nan
       50 -1    0    0    0    0 -8.6367699467e-02 +1.6347042820e-02 +3.0491868828e+01 3.0491995936e+01 4.9935713700e-03 0.0000e+00 0.0000e+00
       11 -1    0    0    0    0 -4.1666940490e-18 +7.8864119869e-19 +1.4710393952e-15 5.1100000000e-04 5.1099893000e-04 0.0000e+00 1.0000e+00
       50  1    1    2    0    0 -9.6574614902e-02 +4.5622781710e-02 +2.9408640607e+01 2.9408834988e+01 4.9935713700e-03 0.0000e+00 0.0000e+00
       11  1    1    2    0    0 +1.0206915435e-02 -2.9275738890e-02 +1.0832282214e+00 1.0836719479e+00 5.1099893000e-04 0.0000e+00 1.0000e+00
<vert_displacement>
84.294699213269283
</vert_displacement>
</event>
<event>
 4   1200 +8.6263000e+09 6.63430800e-03 7.81665300e-03            nan
       50 -1    0    0    0    0 +1.4252644965e-02 -3.7914379515e-03 +7.0336055006e+00 7.0336227356e+00 4.9935713700e-03 0.0000e+00 0.0000e+00
       11 -1    0    0    0    0 +1.7013439600e-18 -4.5258547270e-19 +8.3960431662e-16 5.1100000000e-04 5.1099893000e-04 0.0000e+00 1.0000e+00
       50  1    1    2    0    0 +9.8654476920e-03 -4.1839636114e-03 +7.0148951887e+00 7.0149051509e+00 4.9935713700e-03 0.0000e+00 0.0000e+00
       11  1    1    2    0    0 +4.3871972726e-03 +3.9252565990e-04 +1.8710311915e-02 1.9228584664e-02 5.1099893000e-04 0.0000e+00 1.0000e+00
<vert_displacement>
360.79089681992076
</vert_displacement>
</event>
<event>
 4   1200 +8.6263000e+09 1.07748600e-02 7.81665300e-03            nan
       50 -1    0    0    0    0 -1.1015850095e-02 -8.7016915515e-03 +4.3799174015e+00 4.3799427448e+00 4.9935713700e-03 0.0000e+00 0.0000e+00
       11 -1    0    0    0    0 +3.6648770390e-19 +2.8949767192e-19 -1.4571602353e-16 5.1100000000e-04 5.1099893000e-04 0.0000e+00 1.0000e+00
       50  1    1    2    0    0 -1.7871180442e-02 -1.4921519523e-02 +4.2887714864e+00 4.2888375848e+00 4.9935713700e-03 0.0000e+00 0.0000e+00
       11  1    1    2    0    0 +6.8553303468e-03 +6.2198279714e-03 +9.1145915052e-02 9.1616159954e-02 5.1099893000e-04 0.0000e+00 1.0000e+00
<vert_displacement>
450.15175884778910
</vert_displacement>
</event>
<event>
 4   1200 +8.6263000e+09 2.73824700e-02 7.81665300e-03            nan
       50 -1    0    0    0    0 +2.7436666540e-02 +1.8314745590e-02 +2.6034487162e+01 2.6034508540e+01 4.9935713700e-03 0.0000e+00 0.0000e+00
       11 -1    0    0    0    0 +3.5393016450e-18 +2.3625832643e-18 +3.3584219535e-15 5.1100000000e-04 5.1099893000e-04 0.0000e+00 1.0000e+00
       50  1    1    2    0    0 +1.4949785581e-02 +4.2040948648e-02 +2.5304734876e+01 2.5304774708e+01 4.9935713700e-03 0.0000e+00 0.0000e+00
       11  1    1    2    0    0 +1.2486880959e-02 -2.3726203057e-02 +7.2975228528e-01 7.3024483148e-01 5.1099893000e-04 0.0000e+00 1.0000e+00
<vert_displacement>
489.06747023568892
</vert_displacement>
</event>
<event>
 4   1200 +8.6263000e+09 2.57810900e-02 7.81665300e-03            nan
       50 -1    0    0    0    0 +8.8220548945e-03 +5.2819768913e-03 +2.7993912558e+00 2.7994145936e+00 4.9935713700e-03 0.0000e+00 0.0000e+00
       11 -1    0    0    0    0 -9.5122384515e-19 -5.6952064214e-19 -3.0183984868e-16 5.1100000000e-04 5.1099893000e-04 0.0000e+00 1.0000e+00
       50  1    1    2    0    0 -5.7900137311e-03 -1.8990810154e-02 +1.8455200955e+00 1.8456336402e+00 4.9935713700e-03 0.0000e+00 0.0000e+00
       11  1    1    2    0    0 +1.4612068626e-02 +2.4272787045e-02 +9.5387116027e-01 9.5429195336e-01 5.1099893000e-04 0.0000e+00 1.0000e+00
<vert_displacement>
194.20735414580946
</vert_displacement>
</event>
<event>
 4   1200 +8.6263000e+09 3.60908900e-02 7.81665300e-03            nan
       50 -1    0    0    0    0 -1.5581429820e-01 -3.5561413824e-02 +5.1371109891e+01 5.1371358743e+01 4.9935713700e-03 0.0000e+00 0.0000e+00
       11 -1    0    0    0    0 +4.2934525923e-18 +9.7989238555e-19 -1.4155275060e-15 5.1100000000e-04 5.1099893000e-04 0.0000e+00 1.0000e+00
       50  1    1    2    0    0 -1.1962246308e-01 -1.9372795772e-02 +5.0089083002e+01 5.0089229838e+01 4.9935713700e-03 0.0000e+00 0.0000e+00
       11  1    1    2    0    0 -3.6191835119e-02 -1.6188618052e-02 +1.2820268893e+00 1.2826399052e+00 5.1099893000e-04 0.0000e+00 1.0000e+00
<vert_displacement>
231.88184661046415
</vert_displacement>
</event>
<event>
 4   1200 +8.6263000e+09 1.74655700e-02 7.81665300e-03            nan
       50 -1    0    0    0    0 +1.5246499906e-03 +1.2078460420e-02 +9.3313815317e+00 9.3313908095e+00 4.9935713700e-03 0.0000e+00 0.0000e+00
       11 -1    0    0    0    0 +6.0088305331e-20 +4.7602677475e-19 +3.6776106392e-16 5.1100000000e-04 5.1099893000e-04 0.0000e+00 1.0000e+00
       50  1    1    2    0    0 +4.7018055496e-03 -4.7105906778e-03 +9.0487213820e+00 9.0487252076e+00 4.9935713700e-03 0.0000e+00 0.0000e+00
       11  1    1    2    0    0 -3.1771555590e-03 +1.6789051098e-02 +2.8266014966e-01 2.8317660193e-01 5.1099893000e-04 0.0000e+00 1.0000e+00
<vert_displacement>
408.79782063158802
</vert_displacement>
</event>
<event>
 4   1200 +8.6263000e+09 1.72850600e-02 7.81665300e-03            nan
       50 -1    0    0    0    0 +7.5754941371e-02 +5.2081819017e-02 +2.3242937461e+01 2.3243119801e+01 4.9935713700e-03 0.0000e+00 0.0000e+00
       11 -1    0    0    0    0 -3.7089472011e-18 -2.5499157332e-18 -1.1379696992e-15 5.1100000000e-04 5.1099893000e-04 0.0000e+00 1.0000e+00
       50  1    1    2    0    0 +7.4705357944e-02 +3.4927160471e-02 +2.2971862897e+01 2.2972011463e+01 4.9935713700e-03 0.0000e+00 0.0000e+00
       11  1    1    2    0    0 +1.0495834264e-03 +1.7154658546e-02 +2.7107456444e-01 2.7161933757e-01 5.1099893000e-04 0.0000e+00 1.0000e+00
<vert_displacement>
162.92134701611536
</vert_displacement>
</event>
<event>
 4   1200 +8.6263000e+09 1.32179100e-02 7.81665300e-03            nan
       50 -1    0    0    0    0 -6.1731170373e-03 -5.6269780052e-03 +3.1960674849e+00 3.1960823009e+00 4.9935713700e-03 0.0000e+00 0.0000e+00
       11 -1    0    0    0    0 +1.0855812982e-18 +9.8953932847e-19 -5.6204848675e-16 5.1100000000e-04 5.1099893000e-04 0.0000e+00 1.0000e+00
       50  1    1    2    0    0 -8.0984038353e-03 +6.6790465661e-03 +3.0420258425e+00 3.0420480529e+00 4.9935713700e-03 0.0000e+00 0.0000e+00
       11  1    1    2    0    0 +1.9252867980e-03 -1.2306024571e-02 +1.5404164239e-01 1.5454524801e-01 5.1099893000e-04 0.0000e+00 1.0000e+00
<vert_displacement>
269.97348478227877
</vert_displacement>
</event>
<event>
 4   1200 +8.6263000e+09 2.24180200e-02 7.81665300e-03            nan
       50 -1    0    0    0    0 +1.5864796424e-02 -1.8980525478e-02 +1.3314654505e+01 1.3314678422e+01 4.9935713700e-03 0.0000e+00 0.0000e+00
       11 -1    0    0    0    0 -8.1851999732e-19 +9.7927129025e-19 -6.8694931085e-16 5.1100000000e-04 5.1099893000e-04 0.0000e+00 1.0000e+00
       50  1    1    2    0    0 +2.5394663315e-02 +1.0878331204e-03 +1.2829598868e+01 1.2829625018e+01 4.9935713700e-03 0.0000e+00 0.0000e+00
       11  1    1    2    0    0 -9.5298668913e-03 -2.0068358598e-02 +4.8505563758e-01 4.8556440360e-01 5.1099893000e-04 0.0000e+00 1.0000e+00
<vert_displacement>
159.16100792583100
</vert_displacement>
</event>
<event>
 4   1200 +8.6263000e+09 1.91505000e-02 7.81665300e-03            nan
       50 -1    0    0    0    0 +1.5320865231e-02 -6.4477362326e-05 +6.1392456664e+00 6.1392668146e+00 4.9935713700e-03 0.0000e+00 0.0000e+00
       11 -1    0    0    0    0 -1.7316382678e-20 +7.2875432506e-23 -6.9388722965e-18 5.1100000000e-04 5.1099893000e-04 0.0000e+00 1.0000e+00
       50  1    1    2    0    0 +1.0811986541e-02 -1.8190324622e-02 +5.7841603157e+00 5.7842011791e+00 4.9935713700e-03 0.0000e+00 0.0000e+00
       11  1    1    2    0    0 +4.5088786901e-03 +1.8125847259e-02 +3.5508535068e-01 3.5557663550e-01 5.1099893000e-04 0.0000e+00 1.0000e+00
<vert_displacement>
131.55747193220594
</vert_displacement>
</event>
<event>
 4   1200 +8.6263000e+09 1.90025600e-02 7.81665300e-03            nan
       50 -1    0    0    0    0 -5.1876053046e-02 -6.6834560197e-03 +2.3379130041e+01 2.3379189084e+01 4.9935713700e-03 0.0000e+00 0.0000e+00
       11 -1    0    0    0    0 -9.2380219475e-20 -1.1901813991e-20 +4.1633259231e-17 5.1100000000e-04 5.1099893000e-04 0.0000e+00 1.0000e+00
       50  1    1    2    0    0 -3.3619547036e-02 -1.2005440963e-02 +2.3045467691e+01 2.3045495882e+01 4.9935713700e-03 0.0000e+00 0.0000e+00
       11  1    1    2    0    0 -1.8256506010e-02 +5.3219849435e-03 +3.3366235032e-01 3.3420420206e-01 5.1099893000e-04 0.0000e+00 1.0000e+00
<vert_displacement>
208.63226114771010
</vert_displacement>
</event>
<event>
 4   1200 +8.6263000e+09 7.69208500e-03 7.81665300e-03            nan
       50 -1    0    0    0    0 +1.3436152257e-02 +2.2589244505e-02 +1.2130765584e+01 1.2130795085e+01 4.9935713700e-03 0.0000e+00 0.0000e+00
       11 -1    0    0    0    0 -5.5336085068e-19 -9.3032613180e-19 -4.9959918843e-16 5.1100000000e-04 5.1099893000e-04 0.0000e+00 1.0000e+00
       50  1    1    2    0    0 +8.1901569028e-03 +1.9861961001e-02 +1.2097186264e+01 1.2097206373e+01 4.9935713700e-03 0.0000e+00 0.0000e+00
       11  1    1    2    0    0 +5.2459953540e-03 +2.7272835033e-03 +3.3579319771e-02 3.4099712297e-02 5.1099893000e-04 0.0000e+00 1.0000e+00
<vert_displacement>
211.19353572324053
</vert_displacement>
</event>
<event>
 4   1200 +8.6263000e+09 1.55421200e-02 7.81665300e-03            nan
       50 -1    0    0    0    0 +1.7987105802e-02 +6.0224123005e-03 +6.5750662986e+00 6.5750955561e+00 4.9935713700e-03 0.0000e+00 0.0000e+00
       11 -1    0    0    0    0 -1.3667279918e-18 -4.5760555142e-19 -4.9959828207e-16 5.1100000000e-04 5.1099893000e-04 0.0000e+00 1.0000e+00
       50  1    1    2    0    0 +7.7112371503e-03 +1.6911999079e-02 +6.3557660042e+00 6.3557951442e+00 4.9935713700e-03 0.0000e+00 0.0000e+00
       11  1    1    2    0    0 +1.0275868652e-02 -1.0889586779e-02 +2.1930029434e-01 2.1981141189e-01 5.1099893000e-04 0.0000e+00 1.0000e+00
<vert_displacement>
53.618684019990070
</vert_displacement>
</event>
<event>
 4   1200 +8.6263000e+09 1.19239400e-02 7.81665300e-03            nan
       50 -1    0    0    0    0 -1.9116589456e-02 -9.5961278030e-03 +5.5982662515e+00 5.5983093419e+00 4.9935713700e-03 0.0000e+00 0.0000e+00
       11 -1    0    0    0    0 +2.6063733491e-19 +1.3083448707e-19 -7.6327275808e-17 5.1100000000e-04 5.1099893000e-04 0.0000e+00 1.0000e+00
       50  1    1    2    0    0 -1.7379747647e-02 +1.3498705569e-03 +5.4810948637e+00 5.4811248588e+00 4.9935713700e-03 0.0000e+00 0.0000e+00
       11  1    1    2    0    0 -1.7368418089e-03 -1.0945998360e-02 +1.1717138780e-01 1.1769548309e-01 5.1099893000e-04 0.0000e+00 1.0000e+00
<vert_displacement>
21.602119604594520
</vert_displacement>
</event>
<event>
 4   1200 +8.6263000e+09 2.50455300e-02 7.81665300e-03            nan
       50 -1    0    0    0    0 -2.6650792195e-02 -3.9358776544e-02 +1.6774084552e+01 1.6774152642e+01 4.9935713700e-03 0.0000e+00 0.0000e+00
       11 -1    0    0    0    0 -4.6302995619e-19 -6.8381804357e-19 +2.9143237388e-16 5.1100000000e-04 5.1099893000e-04 0.0000e+00 1.0000e+00
       50  1    1    2    0    0 -1.1485959738e-02 -1.7900935518e-02 +1.6162420744e+01 1.6162435510e+01 4.9935713700e-03 0.0000e+00 0.0000e+00
       11  1    1    2    0    0 -1.5164832457e-02 -2.1457841025e-02 +6.1166380827e-01 6.1222813277e-01 5.1099893000e-04 0.0000e+00 1.0000e+00
<vert_displacement>
383.78884505064747
</vert_displacement>
</event>
<event>
 4   1200 +8.6263000e+09 1.52060900e-02 7.81665300e-03            nan
       50 -1    0    0    0    0 -1.4895372828e-02 -3.9786468304e-02 +2.6394835581e+01 2.6394870243e+01 4.9935713700e-03 0.0000e+00 0.0000e+00
       11 -1    0    0    0    0 -3.1326515375e-19 -8.3675073157e-19 +5.5511079328e-16 5.1100000000e-04 5.1099893000e-04 0.0000e+00 1.0000e+00
       50  1    1    2    0    0 -2.8846361964e-02 -3.6574121422e-02 +2.6191410330e+01 2.6191452227e+01 4.9935713700e-03 0.0000e+00 0.0000e+00
       11  1    1    2    0    0 +1.3950989136e-02 -3.2123468824e-03 +2.0342525152e-01 2.0392901546e-01 5.1099893000e-04 0.0000e+00 1.0000e+00
<vert_displacement>
234.69740750281457
</vert_displacement>
</event>
<event>
 4   1200 +8.6263000e+09 1.18584600e-02 7.81665300e-03            nan
       50 -1    0    0    0    0 -1.9890551734e-02 +2.0979534674e-02 +1.0429805980e+01 1.0429847242e+01 4.9935713700e-03 0.0000e+00 0.0000e+00
       11 -1    0    0    0    0 +1.9849539613e-19 -2.0936277190e-19 -1.0408300872e-16 5.1100000000e-04 5.1099893000e-04 0.0000e+00 1.0000e+00
       50  1    1    2    0    0 -1.2258731229e-02 +2.8542035578e-02 +1.0315343340e+01 1.0315391320e+01 4.9935713700e-03 0.0000e+00 0.0000e+00
       11  1    1    2    0    0 -7.6318205057e-03 -7.5625009044e-03 +1.1446264029e-01 1.1496692240e-01 5.1099893000e-04 0.0000e+00 1.0000e+00
<vert_displacement>
6.4994132228784300
</vert_displacement>
</event>
<event>
 4   1200 +8.6263000e+09 1.31267200e-02 7.81665300e-03            nan
       50 -1    0    0    0    0 +1.0227145585e-02 -2.5314528796e-05 +3.9557456076e+00 3.9557619801e+00 4.9935713700e-03 0.0000e+00 0.0000e+00
       11 -1    0    0    0    0 +1.0584415767e-18 -2.6198854362e-21 +4.0939337208e-16 5.1100000000e-04 5.1099893000e-04 0.0000e+00 1.0000e+00
       50  1    1    2    0    0 +2.1251206847e-02 +4.1165320281e-03 +3.8057773875e+00 3.8058422220e+00 4.9935713700e-03 0.0000e+00 0.0000e+00
       11  1    1    2    0    0 -1.1024061262e-02 -4.1418465569e-03 +1.4996822009e-01 1.5043075808e-01 5.1099893000e-04 0.0000e+00 1.0000e+00
<vert_displacement>
329.94151117393403
</vert_displacement>
</event>
<event>
 4   1200 +8.6263000e+09 1.06844600e-02 7.81665300e-03            nan
       50 -1    0    0    0    0 +2.3227054159e-03 -2.7509548521e-02 +5.0982514346e+01 5.0982522066e+01 4.9935713700e-03 0.0000e+00 0.0000e+00
       11 -1    0    0    0    0 -1.9283812538e-19 +2.2839270665e-18 -4.2327246608e-15 5.1100000000e-04 5.1099893000e-04 0.0000e+00 1.0000e+00
       50  1    1    2    0    0 +7.7228301140e-03 -1.9715261589e-02 +5.0895066019e+01 5.0895070668e+01 4.9935713700e-03 0.0000e+00 0.0000e+00
       11  1    1    2    0    0 -5.4001246981e-03 -7.7942869322e-03 +8.7448327544e-02 8.7962397453e-02 5.1099893000e-04 0.0000e+00 1.0000e+00
<vert_displacement>
95.846242354053643
</vert_displacement>
</event>
<event>
 4   1200 +8.6263000e+09 2.91380700e-02 7.81665300e-03            nan
       50 -1    0    0    0    0 +2.6962078752e-03 -1.1131536653e-03 +4.3080872287e+00 4.3080911103e+00 4.9935713700e-03 0.0000e+00 0.0000e+00
       11 -1    0    0    0    0 -2.9964575052e-19 +1.2371144248e-19 -4.7878356962e-16 5.1100000000e-04 5.1099893000e-04 0.0000e+00 1.0000e+00
       50  1    1    2    0    0 -1.6624697968e-02 -2.2661245049e-02 +3.2306889744e+00 3.2308150826e+00 4.9935713700e-03 0.0000e+00 0.0000e+00
       11  1    1    2    0    0 +1.9320905843e-02 +2.1548091384e-02 +1.0773982543e+00 1.0777870277e+00 5.1099893000e-04 0.0000e+00 1.0000e+00
<vert_displacement>
170.32510966230731
</vert_displacement>
</event>
<event>
 4   1200 +8.6263000e+09 5.32430600e-03 7.81665300e-03            nan
       50 -1    0    0    0    0 +5.5807370810e-02 +3.3561724894e-02 +2.4793515703e+01 2.4793601729e+01 4.9935713700e-03 0.0000e+00 0.0000e+00
       11 -1    0    0    0    0 -3.0612462720e-18 -1.8409880939e-18 -1.3600185139e-15 5.1100000000e-04 5.1099893000e-04 0.0000e+00 1.0000e+00
       50  1    1    2    0    0 +5.7096963248e-02 +3.4872483957e-02 +2.4790171479e+01 2.4790262263e+01 4.9935713700e-03 0.0000e+00 0.0000e+00
       11  1    1    2    0    0 -1.2895924377e-03 -1.3107590630e-03 +3.3442233803e-03 3.8504659329e-03 5.1099893000e-04 0.0000e+00 1.0000e+00
<vert_displacement>
221.88219968378152
</vert_displacement>
</event>
<event>
 4   1200 +8.6263000e+09 2.17164000e-02 7.81665300e-03            nan
       50 -1    0    0    0    0 -5.3708341826e-02 +1.9726990276e-02 +2.1549609457e+01 2.1549685994e+01 4.9935713700e-03 0.0000e+00 0.0000e+00
       11 -1    0    0    0    0 +3.8046414725e-19 -1.3974388853e-19 -1.5265512781e-16 5.1100000000e-04 5.1099893000e-04 0.0000e+00 1.0000e+00
       50  1    1    2    0    0 -7.1501342623e-02 +9.8710679597e-03 +2.1103256851e+01 2.1103380879e+01 4.9935713700e-03 0.0000e+00 0.0000e+00
       11  1    1    2    0    0 +1.7793000796e-02 +9.8559223162e-03 +4.4635260623e-01 4.4681611462e-01 5.1099893000e-04 0.0000e+00 1.0000e+00
<vert_displacement>
131.90050721688888
</vert_displacement>
</event>
<event>
 4   1200 +8.6263000e+09 1.19351700e-02 7.81665300e-03            nan
       50 -1    0    0    0    0 +8.6174365782e-02 -1.9127094753e-02 +2.7127360284e+01 2.7127504359e+01 4.9935713700e-03 0.0000e+00 0.0000e+00
       11 -1    0    0    0    0 +1.4988819202e-18 -3.3268891800e-19 +4.7184228747e-16 5.1100000000e-04 5.1099893000e-04 0.0000e+00 1.0000e+00
       50  1    1    2    0    0 +8.0504543848e-02 -2.8500340953e-02 +2.7011893968e+01 2.7012029430e+01 4.9935713700e-03 0.0000e+00 0.0000e+00
       11  1    1    2    0    0 +5.6698219343e-03 +9.3732461992e-03 +1.1546631533e-01 1.1598592898e-01 5.1099893000e-04 0.0000e+00 1.0000e+00
<vert_displacement>
330.85297861735955
</vert_displacement>
</event>
<event>
 4   1200 +8.6263000e+09 1.39621500e-02 7.81665300e-03            nan
       50 -1    0    0    0    0 +1.5986222715e-02 +3.9950469634e-03 +5.1461028570e+00 5.1461316608e+00 4.9935713700e-03 0.0000e+00 0.0000e+00
       11 -1    0    0    0    0 +7.5443783810e-19 +1.8853825873e-19 +2.4286004164e-16 5.1100000000e-04 5.1099893000e-04 0.0000e+00 1.0000e+00
       50  1    1    2    0    0 +2.1943526899e-02 +1.5168833119e-02 +4.9739262482e+00 4.9740002886e+00 4.9935713700e-03 0.0000e+00 0.0000e+00
       11  1    1    2    0    0 -5.9573041843e-03 -1.1173786155e-02 +1.7217660872e-01 1.7264237221e-01 5.1099893000e-04 0.0000e+00 1.0000e+00
<vert_displacement>
21.311941845083354
</vert_displacement>
</event>
<event>
 4   1200 +8.6263000e+09 8.43005700e-03 7.81665300e-03            nan
       50 -1    0    0    0    0 +2.3697722093e-02 -2.0504799348e-02 +8.4362245596e+00 8.4362842404e+00 4.9935713700e-03 0.0000e+00 0.0000e+00
       11 -1    0    0    0    0 +5.6525409778e-19 -4.8909434461e-19 +2.0122653492e-16 5.1100000000e-04 5.1099893000e-04 0.0000e+00 1.0000e+00
       50  1    1    2    0    0 +2.1311405025e-02 -2.6799776369e-02 +8.3908309720e+00 8.3909023198e+00 4.9935713700e-03 0.0000e+00 0.0000e+00
       11  1    1    2    0    0 +2.3863170681e-03 +6.2949770210e-03 +4.5393587666e-02 4.5892920651e-02 5.1099893000e-04 0.0000e+00 1.0000e+00
<vert_displacement>
156.42423068207731
</vert_displacement>
</event>
<event>
 4   1200 +8.6263000e+09 5.19121500e-02 7.81665300e-03            nan
       50 -1    0    0    0    0 -2.5973012676e-03 -2.5615313115e-02 +1.1507187151e+01 1.1507217038e+01 4.9935713700e-03 0.0000e+00 0.0000e+00
       11 -1    0    0    0    0 +2.1926552179e-20 +2.1624580352e-19 -9.7144271496e-17 5.1100000000e-04 5.1099893000e-04 0.0000e+00 1.0000e+00
       50  1    1    2    0    0 +3.2950929362e-02 +2.1672188522e-02 +7.4876418644e+00 7.4877473964e+00 4.9935713700e-03 0.0000e+00 0.0000e+00
       11  1    1    2    0    0 -3.5548230630e-02 -4.7287501637e-02 +4.0195452864e+00 4.0199806411e+00 5.1099893000e-04 0.0000e+00 1.0000e+00
<vert_displacement>
366.11398307935872
</vert_displacement>
</event>
<event>
 4   1200 +8.6263000e+09 5.11176300e-03 7.81665300e-03            nan
       50 -1    0    0    0    0 +7.6843423331e-02 +1.8579756728e-02 +3.0563916383e+01 3.0564019038e+01 4.9935713700e-03 0.0000e+00 0.0000e+00
       11 -1    0    0    0    0 +2.5121697842e-18 +6.0741051643e-19 +9.9919737951e-16 5.1100000000e-04 5.1099893000e-04 0.0000e+00 1.0000e+00
       50  1    1    2    0    0 +7.5925222388e-02 +1.9176257392e-02 +3.0562749602e+01 3.0562850334e+01 4.9935713700e-03 0.0000e+00 0.0000e+00
       11  1    1    2    0    0 +9.1820094249e-04 -5.9650066451e-04 +1.1667811294e-03 1.6797035821e-03 5.1099893000e-04 0.0000e+00 1.0000e+00
<vert_displacement>
335.27873859350649
</vert_displacement>
</event>
<event>
 4   1200 +8.6263000e+09 1.57792000e-02 7.81665300e-03            nan
       50 -1    0    0    0    0 -1.9032889480e-03 +1.7860048350e-02 +7.8358629425e+00 7.8358851187e+00 4.9935713700e-03 0.0000e+00 0.0000e+00
       11 -1    0    0    0    0 +1.5000198546e-19 -1.4075859138e-18 -6.1755993510e-16 5.1100000000e-04 5.1099893000e-04 0.0000e+00 1.0000e+00
       50  1    1    2    0    0 +1.2273525619e-02 +2.2307023363e-02 +7.6100923445e+00 7.6101365737e+00 4.9935713700e-03 0.0000e+00 0.0000e+00
       11  1    1    2    0    0 -1.4176814567e-02 -4.4469750127e-03 +2.2577059808e-01 2.2625954507e-01 5.1099893000e-04 0.0000e+00 1.0000e+00
<vert_displacement>
351.22069595798831
</vert_displacement>
</event>
<event>
 4   1200 +8.6263000e+09 1.08294800e-02 7.81665300e-03            nan
       50 -1    0    0    0    0 +2.5230453581e-02 -2.2602190430e-02 +9.0625775726e+00 9.0626422544e+00 4.9935713700e-03 0.0000e+00 0.0000e+00
       11 -1    0    0    0    0 +3.0715504917e-18 -2.7515862489e-18 +1.1032764239e-15 5.1100000000e-04 5.1099893000e-04 0.0000e+00 1.0000e+00
       50  1    1    2    0    0 +2.0455192748e-02 -1.3895141408e-02 +8.9713308580e+00 8.9713663279e+00 4.9935713700e-03 0.0000e+00 0.0000e+00
       11  1    1    2    0    0 +4.7752608333e-03 -8.7070490220e-03 +9.1246714667e-02 9.1786926499e-02 5.1099893000e-04 0.0000e+00 1.0000e+00
<vert_displacement>
185.34406849375964
</vert_displacement>
</event>
<event>
 4   1200 +8.6263000e+09 1.41770700e-02 7.81665300e-03            nan
       50 -1    0    0    0    0 +1.3446656048e-04 +4.6924144513e-03 +2.4510053528e+00 2.4510149350e+00 4.9935713700e-03 0.0000e+00 0.0000e+00
       11 -1    0    0    0    0 +1.3514122153e-20 +4.7159577711e-19 +2.4633028179e-16 5.1100000000e-04 5.1099893000e-04 0.0000e+00 1.0000e+00
       50  1    1    2    0    0 -6.7839885779e-03 -6.9931931799e-03 +2.2643733892e+00 2.2643998562e+00 4.9935713700e-03 0.0000e+00 0.0000e+00
       11  1    1    2    0    0 +6.9184551384e-03 +1.1685607631e-02 +1.8663196357e-01 1.8712607887e-01 5.1099893000e-04 0.0000e+00 1.0000e+00
<vert_displacement>
475.36528871820138
</vert_displacement>
</event>
<event>
 4   1200 +8.6263000e+09 2.27788900e-02 7.81665300e-03            nan
       50 -1    0    0    0    0 +1.3298436110e-02 +9.4661253554e-03 +8.9759638528e+00 8.9759800846e+00 4.9935713700e-03 0.0000e+00 0.0000e+00
       11 -1    0    0    0    0 -1.0280376144e-18 -7.3178025205e-19 -6.9388824297e-16 5.1100000000e-04 5.1099893000e-04 0.0000e+00 1.0000e+00
       50  1    1    2    0    0 +4.0286150434e-03 +2.9456337418e-02 +8.4632547744e+00 8.4633084676e+00 4.9935713700e-03 0.0000e+00 0.0000e+00
       11  1    1    2    0    0 +9.2698210664e-03 -1.9990212062e-02 +5.1270907842e-01 5.1318261698e-01 5.1099893000e-04 0.0000e+00 1.0000e+00
<vert_displacement>
246.23404927547472
</vert_displacement>
</event>
<event>
 4   1200 +8.6263000e+09 1.54006300e-02 7.81665300e-03            nan
       50 -1    0    0    0    0 +2.6667091565e-03 +1.5363198849e-02 +8.8742348155e+00 8.8742499196e+00 4.9935713700e-03 0.0000e+00 0.0000e+00
       11 -1    0    0    0    0 +1.8974734379e-19 +1.0931548972e-18 +6.3143837050e-16 5.1100000000e-04 5.1099893000e-04 0.0000e+00 1.0000e+00
       50  1    1    2    0    0 -2.7277902808e-03 +1.4364610549e-03 +8.6614564628e+00 8.6614584509e+00 4.9935713700e-03 0.0000e+00 0.0000e+00
       11  1    1    2    0    0 +5.3944994372e-03 +1.3926737794e-02 +2.1277835267e-01 2.1330246865e-01 5.1099893000e-04 0.0000e+00 1.0000e+00
<vert_displacement>
52.362478144940624
</vert_displacement>
</event>
<event>
 4   1200 +8.6263000e+09 7.16300100e-03 7.81665300e-03            nan
       50 -1    0    0    0    0 -5.0855574072e-03 -5.8950929144e-05 +2.4567121980e+00 2.4567225375e+00 4.9935713700e-03 0.0000e+00 0.0000e+00
       11 -1    0    0    0    0 -1.7954925541e-19 -2.0813048769e-21 +8.6735987935e-17 5.1100000000e-04 5.1099893000e-04 0.0000e+00 1.0000e+00
       50  1    1    2    0    0 -6.1113465643e-03 -5.0789681596e-03 +2.4306195614e+00 2.4306376802e+00 4.9935713700e-03 0.0000e+00 0.0000e+00
       11  1    1    2    0    0 +1.0257891571e-03 +5.0200172304e-03 +2.6092636623e-02 2.6595857238e-02 5.1099893000e-04 0.0000e+00 1.0000e+00
<vert_displacement>
178.79074381421438
</vert_displacement>
</event>
<event>
 4   1200 +8.6263000e+09 1.41972000e-02 7.81665300e-03            nan
       50 -1    0    0    0    0 -6.1380990665e-02 -3.2494660344e-02 +1.8464644422e+01 1.8464775712e+01 4.9935713700e-03 0.0000e+00 0.0000e+00
       11 -1    0    0    0    0 +5.2591428429e-18 +2.7841528547e-18 -1.5820566190e-15 5.1100000000e-04 5.1099893000e-04 0.0000e+00 1.0000e+00
       50  1    1    2    0    0 -6.2304267350e-02 -4.5392309692e-02 +1.8290139147e+01 1.8290302273e+01 4.9935713700e-03 0.0000e+00 0.0000e+00
       11  1    1    2    0    0 +9.2327668498e-04 +1.2897649348e-02 +1.7450527580e-01 1.7498443988e-01 5.1099893000e-04 0.0000e+00 1.0000e+00
<vert_displacement>
38.105533854270860
</vert_displacement>
</event>
<event>
 4   1200 +8.6263000e+09 1.42465600e-02 7.81665300e-03            nan
       50 -1    0    0    0    0 -3.7777770607e-02 -3.3346961046e-03 +1.1619487818e+01 1.1619550782e+01 4.9935713700e-03 0.0000e+00 0.0000e+00
       11 -1    0    0    0    0 -7.8959668885e-19 -6.9698792707e-20 +2.4285999305e-16 5.1100000000e-04 5.1099893000e-04 0.0000e+00 1.0000e+00
       50  1    1    2    0    0 -3.7423463674e-02 +1.0056981752e-02 +1.1442589024e+01 1.1442655731e+01 4.9935713700e-03 0.0000e+00 0.0000e+00
       11  1    1    2    0    0 -3.5430693317e-04 -1.3391677857e-02 +1.7689879386e-01 1.7740605107e-01 5.1099893000e-04 0.0000e+00 1.0000e+00
<vert_displacement>
305.78078778837551
</vert_displacement>
</event>
<event>
 4   1200 +8.6263000e+09 8.93806300e-03 7.81665300e-03            nan
       50 -1    0    0    0    0 +2.3036403306e-02 +3.0602451686e-02 +1.5513736247e+01 1.5513784337e+01 4.9935713700e-03 0.0000e+00 0.0000e+00
       11 -1    0    0    0    0 -7.2124901503e-19 -9.5813516731e-19 -4.8572109277e-16 5.1100000000e-04 5.1099893000e-04 0.0000e+00 -1.0000e+00
       50  1    1    2    0    0 +3.0337170283e-02 +2.9806401135e-02 +1.5459766787e+01 1.5459826092e+01 4.9935713700e-03 0.0000e+00 0.0000e+00
       11  1    1    2    0    0 -7.3007669772e-03 +7.9605055062e-04 +5.3969459777e-02 5.4469244565e-02 5.1099893000e-04 0.0000e+00 -1.0000e+00
<vert_displacement>
228.65694421322030
</vert_displacement>
</event>
<event>
 4   1200 +8.6263000e+09 2.65006000e-02 7.81665300e-03            nan
       50 -1    0    0    0    0 -1.4086124013e-02 +5.4779083804e-03 +4.7315910268e+00 4.7316178002e+00 4.9935713700e-03 0.0000e+00 0.0000e+00
       11 -1    0    0    0    0 +9.9154762131e-19 -3.8559982998e-19 -3.3306520824e-16 5.1100000000e-04 5.1099893000e-04 0.0000e+00 1.0000e+00
       50  1    1    2    0    0 +1.2771220877e-02 -4.2785128548e-03 +3.9335133675e+00 3.9335395966e+00 4.9935713700e-03 0.0000e+00 0.0000e+00
       11  1    1    2    0    0 -2.6857344890e-02 +9.7564212353e-03 +7.9807765928e-01 7.9858920359e-01 5.1099893000e-04 0.0000e+00 1.0000e+00
<vert_displacement>
129.59549379113702
</vert_displacement>
</event>
<event>
 4   1200 +8.6263000e+09 2.46980000e-02 7.81665300e-03            nan
       50 -1    0    0    0    0 +2.6216585882e-02 -2.1854163852e-02 +1.0050022795e+01 1.0050081991e+01 4.9935713700e-03 0.0000e+00 0.0000e+00
       11 -1    0    0    0    0 +1.7557738002e-18 -1.4636142360e-18 +6.7306882728e-16 5.1100000000e-04 5.1099893000e-04 0.0000e+00 1.0000e+00
       50  1    1    2    0    0 +1.9534393349e-02 +3.1170727663e-03 +9.4405416023e+00 9.4405636479e+00 4.9935713700e-03 0.0000e+00 0.0000e+00
       11  1    1    2    0    0 +6.6821925332e-03 -2.4971236618e-02 +6.0948119254e-01 6.1002934318e-01 5.1099893000e-04 0.0000e+00 1.0000e+00
<vert_displacement>
483.12978400327012
</vert_displacement>
</event>
<event>
 4   1200 +8.6263000e+09 2.42858900e-02 7.81665300e-03            nan
       50 -1    0    0    0    0 +7.6650946270e-03 +1.9380342752e-03 +3.0032656203e+00 3.0032801786e+00 4.9935713700e-03 0.0000e+00 0.0000e+00
       11 -1    0    0    0    0 -1.3105217651e-18 -3.3135091250e-19 -5.1347636959e-16 5.1100000000e-04 5.1099893000e-04 0.0000e+00 1.0000e+00
       50  1    1    2    0    0 -9.0053532009e-03 -1.7132404562e-02 +2.2700369181e+00 2.2701249219e+00 4.9935713700e-03 0.0000e+00 0.0000e+00
       11  1    1    2    0    0 +1.6670447828e-02 +1.9070438838e-02 +7.3322870218e-01 7.3366625675e-01 5.1099893000e-04 0.0000e+00 1.0000e+00
<vert_displacement>
415.41785900884497
</vert_displacement>
</event>
<event>
 4   1200 +8.6263000e+09 2.62884800e-02 7.81665300e-03            nan
       50 -1    0    0    0    0 -1.9583757619e-02 +1.7894030276e-02 +1.4755540356e+01 1.4755565047e+01 4.9935713700e-03 0.0000e+00 0.0000e+00
       11 -1    0    0    0    0 -6.4465668781e-20 +5.8903436787e-20 +4.8572178831e-17 5.1100000000e-04 5.1099893000e-04 0.0000e+00 1.0000e+00
       50  1    1    2    0    0 +5.3332077200e-03 +7.5952327197e-03 +1.4072036625e+01 1.4072040571e+01 4.9935713700e-03 0.0000e+00 0.0000e+00
       11  1    1    2    0    0 -2.4916965339e-02 +1.0298797557e-02 +6.8350373104e-01 6.8403547558e-01 5.1099893000e-04 0.0000e+00 1.0000e+00
<vert_displacement>
32.761693791720809
</vert_displacement>
</event>
<event>
 4   1200 +8.6263000e+09 1.31372400e-02 7.81665300e-03            nan
       50 -1    0    0    0    0 +1.9444235866e-02 -4.0097203154e-03 +8.6094147947e+00 8.6094391338e+00 4.9935713700e-03 0.0000e+00 0.0000e+00
       11 -1    0    0    0    0 -6.2685389983e-19 +1.2926755437e-19 -2.7755501818e-16 5.1100000000e-04 5.1099893000e-04 0.0000e+00 1.0000e+00
       50  1    1    2    0    0 +2.8784793427e-02 -1.1296020167e-02 +8.4623914136e+00 8.4624493817e+00 4.9935713700e-03 0.0000e+00 0.0000e+00
       11  1    1    2    0    0 -9.3405575613e-03 +7.2862998514e-03 +1.4702338103e-01 1.4750075210e-01 5.1099893000e-04 0.0000e+00 1.0000e+00
<vert_displacement>
113.88962449712415
</vert_displacement>
</event>
<event>
 4   1200 +8.6263000e+09 1.69496100e-02 7.81665300e-03            nan
       50 -1    0    0    0    0 +3.6007148707e-02 -2.9050806423e-02 +1.2731355262e+01 1.2731440304e+01 4.9935713700e-03 0.0000e+00 0.0000e+00
       11 -1    0    0    0    0 +3.8071781979e-18 -3.0716566242e-18 +1.3461365291e-15 5.1100000000e-04 5.1099893000e-04 0.0000e+00 1.0000e+00
       50  1    1    2    0    0 +2.5680456656e-02 -1.5396230047e-02 +1.2469290734e+01 1.2469327683e+01 4.9935713700e-03 0.0000e+00 0.0000e+00
       11  1    1    2    0    0 +1.0326692051e-02 -1.3654576376e-02 +2.6206452863e-01 2.6262362101e-01 5.1099893000e-04 0.0000e+00 1.0000e+00
<vert_displacement>
250.72617974004211
</vert_displacement>
</event>
<event>
 4   1200 +8.6263000e+09 9.03137000e-03 7.81665300e-03            nan
       50 -1    0    0    0    0 -1.7237094301e-02 -8.3105510298e-03 +6.4572706326e+00 6.4573009177e+00 4.9935713700e-03 0.0000e+00 0.0000e+00
       11 -1    0    0    0    0 -1.8522662309e-18 -8.9303642275e-19 +6.9388634350e-16 5.1100000000e-04 5.1099893000e-04 0.0000e+00 1.0000e+00
       50  1    1    2    0    0 -2.4169890935e-02 -5.6940728676e-03 +6.4013542586e+00 6.4014043683e+00 4.9935713700e-03 0.0000e+00 0.0000e+00
       11  1    1    2    0    0 +6.9327966342e-03 -2.6164781622e-03 +5.5916373983e-02 5.6407549375e-02 5.1099893000e-04 0.0000e+00 1.0000e+00
<vert_displacement>
488.24241569657181
</vert_displacement>
</event>
<event>
 4   1200 +8.6263000e+09 1.81428800e-02 7.81665300e-03            nan
       50 -1    0    0    0    0 +8.5766982854e-02 -2.0397381910e-02 +3.8026731296e+01 3.8026833815e+01 4.9935713700e-03 0.0000e+00 0.0000e+00
       11 -1    0    0    0    0 -1.0329139724e-18 +2.4565094952e-19 -4.5796576694e-16 5.1100000000e-04 5.1099893000e-04 0.0000e+00 1.0000e+00
       50  1    1    2    0    0 +1.0103492387e-01 -2.7307052812e-02 +3.7726639883e+01 3.7726785386e+01 4.9935713700e-03 0.0000e+00 0.0000e+00
       11  1    1    2    0    0 -1.5267941017e-02 +6.9096709021e-03 +3.0009141228e-01 3.0055942909e-01 5.1099893000e-04 0.0000e+00 1.0000e+00
<vert_displacement>
141.95772411511950
</vert_displacement>
</event>
<event>
 4   1200 +8.6263000e+09 5.31408000e-03 7.81665300e-03            nan
       50 -1    0    0    0    0 +1.1586467189e-02 -1.2517105250e-02 +2.0471640893e+01 2.0471648608e+01 4.9935713700e-03 0.0000e+00 0.0000e+00
       11 -1    0    0    0    0 +1.2488652972e-18 -1.3491755609e-18 +2.2065674956e-15 5.1100000000e-04 5.1099893000e-04 0.0000e+00 1.0000e+00
       50  1    1    2    0    0 +1.1972165506e-02 -1.4290942704e-02 +2.0468406418e+01 2.0468415518e+01 4.9935713700e-03 0.0000e+00 0.0000e+00
       11  1    1    2    0    0 -3.8569831720e-04 +1.7738374539e-03 +3.2344745611e-03 3.7440897556e-03 5.1099893000e-04 0.0000e+00 1.0000e+00
<vert_displacement>
469.71906633873868
</vert_displacement>
</event>
<event>
 4   1200 +8.6263000e+09 1.27777500e-02 7.81665300e-03            nan
       50 -1    0    0    0    0 +2.0803417390e-02 -1.3964921545e-02 +8.0971932705e+00 8.0972335768e+00 4.9935713700e-03 0.0000e+00 0.0000e+00
       11 -1    0    0    0    0 +1.9610155173e-19 -1.3163908282e-19 +7.6327467514e-17 5.1100000000e-04 5.1099893000e-04 0.0000e+00 1.0000e+00
       50  1    1    2    0    0 +2.5604347103e-02 -3.1555745513e-03 +7.9594838508e+00 7.9595272251e+00 4.9935713700e-03 0.0000e+00 0.0000e+00
       11  1    1    2    0    0 -4.8009297125e-03 -1.0809346994e-02 +1.3770941978e-01 1.3821735175e-01 5.1099893000e-04 0.0000e+00 1.0000e+00
<vert_displacement>
151.66221153520007
</vert_displacement>
</event>
<event>
 4   1200 +8.6263000e+09 4.12137300e-02 7.81665300e-03            nan
       50 -1    0    0    0    0 -1.2652245959e-03 -1.2831546655e-02 +7.2928110130e+00 7.2928241208e+00 4.9935713700e-03 0.0000e+00 0.0000e+00
       11 -1    0    0    0    0 +1.1195543548e-19 +1.1354200655e-18 -6.4531612448e-16 5.1100000000e-04 5.1099893000e-04 0.0000e+00 -1.0000e+00
       50  1    1    2    0    0 +2.5400398560e-02 +2.2945340883e-02 +4.8006410500e+00 4.8007656780e+00 4.9935713700e-03 0.0000e+00 0.0000e+00
       11  1    1    2    0    0 -2.6665623156e-02 -3.5776887538e-02 +2.4921699630e+00 2.4925694428e+00 5.1099893000e-04 0.0000e+00 -1.0000e+00
<vert_displacement>
154.90952503525557
</vert_displacement>
</event>
<event>
 4   1200 +8.6263000e+09 1.25753500e-02 7.81665300e-03            nan
       50 -1    0    0    0    0 -1.6559354862e-02 +1.1770566938e-02 +1.0138603501e+01 1.0138625087e+01 4.9935713700e-03 0.0000e+00 0.0000e+00
       11 -1    0    0    0    0 -9.8599315914e-19 +7.0085450649e-19 +6.0368255760e-16 5.1100000000e-04 5.1099893000e-04 0.0000e+00 1.0000e+00
       50  1    1    2    0    0 -2.3061069615e-02 +2.2321470146e-03 +1.0006536352e+01 1.0006564420e+01 4.9935713700e-03 0.0000e+00 0.0000e+00
       11  1    1    2    0    0 +6.5017147526e-03 +9.5384199230e-03 +1.3206714890e-01 1.3257166623e-01 5.1099893000e-04 0.0000e+00 1.0000e+00
<vert_displacement>
408.11087172949857
</vert_displacement>
</event>
<event>
 4   1200 +8.6263000e+09 6.45023100e-03 7.81665300e-03            nan
       50 -1    0    0    0    0 -3.5252546130e-02 +3.2427654127e-02 +2.1348731213e+01 2.1348785531e+01 4.9935713700e-03 0.0000e+00 0.0000e+00
       11 -1    0    0    0    0 +3.2082308128e-18 -2.9511456781e-18 -1.9428854029e-15 5.1100000000e-04 5.1099893000e-04 0.0000e+00 1.0000e+00
       50  1    1    2    0    0 -3.7172663367e-02 +3.5991530119e-02 +2.1332398818e+01 2.1332462152e+01 4.9935713700e-03 0.0000e+00 0.0000e+00
       11  1    1    2    0    0 +1.9201172372e-03 -3.5638759926e-03 +1.6332395041e-02 1.6834378811e-02 5.1099893000e-04 0.0000e+00 1.0000e+00
<vert_displacement>
237.81067383904261
</vert_displacement>
</event>
<event>
 4   1200 +8.6263000e+09 5.89594200e-03 7.81665300e-03            nan
       50 -1    0    0    0    0 +5.1660043561e-02 -3.0265285781e-02 +1.8542345483e+01 1.8542442819e+01 4.9935713700e-03 0.0000e+00 0.0000e+00
       11 -1    0    0    0    0 +8.3514489235e-18 -4.8927366477e-18 +2.9975865397e-15 5.1100000000e-04 5.1099893000e-04 0.0000e+00 1.0000e+00
       50  1    1    2    0    0 +4.8928002389e-02 -3.1833262808e-02 +1.8532730367e+01 1.8532822966e+01 4.9935713700e-03 0.0000e+00 0.0000e+00
       11  1    1    2    0    0 +2.7320411723e-03 +1.5679770269e-03 +9.6151156019e-03 1.0130852327e-02 5.1099893000e-04 0.0000e+00 1.0000e+00
<vert_displacement>
375.41942803012932
</vert_displacement>
</event>
<event>
 4   1200 +8.6263000e+09 5.68221600e-03 7.81665300e-03            nan
       50 -1    0    0    0    0 +5.1776627350e-02 +4.2316847159e-02 +2.1133123452e+01 2.1133229836e+01 4.9935713700e-03 0.0000e+00 0.0000e+00
       11 -1    0    0    0    0 -1.8700396976e-18 -1.5283765690e-18 -7.6327450841e-16 5.1100000000e-04 5.1099893000e-04 0.0000e+00 -1.0000e+00
       50  1    1    2    0    0 +4.9362386730e-02 +4.1034363706e-02 +2.1125935710e+01 2.1126033821e+01 4.9935713700e-03 0.0000e+00 0.0000e+00
       11  1    1    2    0    0 +2.4142406203e-03 +1.2824834536e-03 +7.1877420843e-03 7.7070148409e-03 5.1099893000e-04 0.0000e+00 -1.0000e+00
<vert_displacement>
396.14735671989865
</vert_displacement>
</event>
<event>
 4   1200 +8.6263000e+09 2.09553700e-02 7.81665300e-03            nan
       50 -1    0    0    0    0 +1.0456231669e-02 -1.3914037425e-02 +1.2326029239e+01 1.2326042539e+01 4.9935713700e-03 0.0000e+00 0.0000e+00
       11 -1    0    0    0    0 +4.3558562332e-19 -5.7963087050e-19 +5.1347763698e-16 5.1100000000e-04 5.1099893000e-04 0.0000e+00 1.0000e+00
       50  1    1    2    0    0 +2.7388392318e-02 -2.7019902921e-03 +1.1906422385e+01 1.1906455239e+01 4.9935713700e-03 0.0000e+00 0.0000e+00
       11  1    1    2    0    0 -1.6932160649e-02 -1.1212047133e-02 +4.1960685456e-01 4.2009829990e-01 5.1099893000e-04 0.0000e+00 1.0000e+00
<vert_displacement>
136.72918301344183
</vert_displacement>
</event>
<event>
 4   1200 +8.6263000e+09 5.01252900e-03 7.81665300e-03            nan
       50 -1    0    0    0    0 -3.5482698900e-02 -2.1517637767e-02 +1.9223911041e+01 1.9223956479e+01 4.9935713700e-03 0.0000e+00 0.0000e+00
       11 -1    0    0    0    0 -9.7336948130e-19 -5.9027674223e-19 +5.2735470804e-16 5.1100000000e-04 5.1099893000e-04 0.0000e+00 1.0000e+00
       50  1    1    2    0    0 -3.5754417635e-02 -2.1857541669e-02 +1.9223724543e+01 1.9223770867e+01 4.9935713700e-03 0.0000e+00 0.0000e+00
       11  1    1    2    0    0 +2.7171873469e-04 +3.3990390165e-04 +1.8649874442e-04 6.9661138468e-04 5.1099893000e-04 0.0000e+00 1.0000e+00
<vert_displacement>
276.54008921722385
</vert_displacement>
</event>
<event>
 4   1200 +8.6263000e+09 2.99214000e-02 7.81665300e-03            nan
       50 -1    0    0    0    0 -7.9206939393e-03 -3.3059050205e-03 +4.8045718232e+00 4.8045820845e+00 4.9935713700e-03 0.0000e+00 0.0000e+00
       11 -1    0    0    0    0 +9.9521599879e-19 +4.1537895444e-19 -6.0368280639e-16 5.1100000000e-04 5.1099893000e-04 0.0000e+00 1.0000e+00
       50  1    1    2    0    0 +7.6726778405e-03 -2.8636434336e-02 +3.6956207215e+00 3.6957430063e+00 4.9935713700e-03 0.0000e+00 0.0000e+00
       11  1    1    2    0    0 -1.5593371780e-02 +2.5330529316e-02 +1.1089511017e+00 1.1093500782e+00 5.1099893000e-04 0.0000e+00 1.0000e+00
<vert_displacement>
443.02760719444268
</vert_displacement>
</event>
<event>
 4   1200 +8.6263000e+09 6.27529000e-03 7.81665300e-03            nan
       50 -1    0    0    0    0 -1.7775800932e-02 +5.0921828371e-02 +1.9615637968e+01 1.9615712754e+01 4.9935713700e-03 0.0000e+00 0.0000e+00
       11 -1    0    0    0    0 -1.4588254490e-18 +4.1790555275e-18 +1.6098173003e-15 5.1100000000e-04 5.1099893000e-04 0.0000e+00 1.0000e+00
       50  1    1    2    0    0 -2.0572036958e-02 +5.3444926757e-02 +1.9601485664e+01 1.9601569956e+01 4.9935713700e-03 0.0000e+00 0.0000e+00
       11  1    1    2    0    0 +2.7962360263e-03 -2.5230983859e-03 +1.4152304713e-02 1.4653798483e-02 5.1099893000e-04 0.0000e+00 1.0000e+00
<vert_displacement>
293.25726753537816
</vert_displacement>
</event>
<event>
 4   1200 +8.6263000e+09 6.90500000e-03 7.81665300e-03            nan
       50 -1    0    0    0    0 +7.0643992982e-03 +3.9074155397e-03 +9.7125606101e+00 9.7125652489e+00 4.9935713700e-03 0.0000e+00 0.0000e+00
       11 -1    0    0    0    0 -6.0563761413e-20 -3.3498641923e-20 -8.3266698083e-17 5.1100000000e-04 5.1099893000e-04 0.0000e+00 1.0000e+00
       50  1    1    2    0    0 +6.7612471233e-03 +8.6587929879e-03 +9.6902526878e+00 9.6902602018e+00 4.9935713700e-03 0.0000e+00 0.0000e+00
       11  1    1    2    0    0 +3.0315217489e-04 -4.7513774482e-03 +2.2307922294e-02 2.2816047113e-02 5.1099893000e-04 0.0000e+00 1.0000e+00
<vert_displacement>
216.43711652580487
</vert_displacement>
</event>
<event>
 4   1200 +8.6263000e+09 2.96288500e-02 7.81665300e-03            nan
       50 -1    0    0    0    0 -8.2018063034e-04 -2.6128762642e-02 +1.2874541160e+01 1.2874568668e+01 4.9935713700e-03 0.0000e+00 0.0000e+00
       11 -1    0    0    0    0 +3.3153422169e-20 +1.0561794154e-18 -5.2041596998e-16 5.1100000000e-04 5.1099893000e-04 0.0000e+00 1.0000e+00
       50  1    1    2    0    0 -2.5244889771e-02 -8.3839065985e-03 +1.1977319312e+01 1.1977349892e+01 4.9935713700e-03 0.0000e+00 0.0000e+00
       11  1    1    2    0    0 +2.4424709141e-02 -1.7744856044e-02 +8.9722184780e-01 8.9772977650e-01 5.1099893000e-04 0.0000e+00 1.0000e+00
<vert_displacement>
331.18143403410744
</vert_displacement>
</event>
<event>
 4   1200 +8.6263000e+09 3.12742100e-02 7.81665300e-03            nan
       50 -1    0    0    0    0 -1.7687768763e-02 -2.6616658897e-02 +1.4856010767e+01 1.4856045980e+01 4.9935713700e-03 0.0000e+00 0.0000e+00
       11 -1    0    0    0    0 +9.4181356234e-19 +1.4172466108e-18 -7.9103207478e-16 5.1100000000e-04 5.1099893000e-04 0.0000e+00 1.0000e+00
       50  1    1    2    0    0 +1.4371894433e-02 -2.5322277047e-02 +1.3855959896e+01 1.3855991388e+01 4.9935713700e-03 0.0000e+00 0.0000e+00
       11  1    1    2    0    0 -3.2059663196e-02 -1.2943818494e-03 +1.0000508713e+00 1.0005655919e+00 5.1099893000e-04 0.0000e+00 1.0000e+00
<vert_displacement>
499.10082664200530
</vert_displacement>
</event>
<event>
 4   1200 +8.6263000e+09 1.52251800e-02 7.81665300e-03            nan
       50 -1    0    0    0    0 -3.2374018937e-02 -2.8334794009e-02 +1.7703455122e+01 1.7703508102e+01 4.9935713700e-03 0.0000e+00 0.0000e+00
       11 -1    0    0    0    0 -1.4211684889e-18 -1.2438528705e-18 +7.7715382240e-16 5.1100000000e-04 5.1099893000e-04 0.0000e+00 1.0000e+00
       50  1    1    2    0    0 -1.8536945367e-02 -3.3069568907e-02 +1.7498676777e+01 1.7498718556e+01 4.9935713700e-03 0.0000e+00 0.0000e+00
       11  1    1    2    0    0 -1.3837073570e-02 +4.7347748981e-03 +2.0477834457e-01 2.0530054609e-01 5.1099893000e-04 0.0000e+00 1.0000e+00
<vert_displacement>
185.50744296321750
</vert_displacement>
</event>
<event>
 4   1200 +8.6263000e+09 3.10955600e-02 7.81665300e-03            nan
       50 -1    0    0    0    0 -5.3696694685e-03 +1.0700720966e-02 +4.9250165808e+00 4.9250336644e+00 4.9935713700e-03 0.0000e+00 0.0000e+00
       11 -1    0    0    0    0 +5.2200890426e-19 -1.0402635877e-18 -4.7878226470e-16 5.1100000000e-04 5.1099893000e-04 0.0000e+00 1.0000e+00
       50  1    1    2    0    0 -4.7822314037e-03 -2.2656573697e-02 +3.6940663045e+00 3.6941422533e+00 4.9935713700e-03 0.0000e+00 0.0000e+00
       11  1    1    2    0    0 -5.8743806478e-04 +3.3357294662e-02 +1.2309502763e+00 1.2314024111e+00 5.1099893000e-04 0.0000e+00 1.0000e+00
<vert_displacement>
337.51790114827895
</vert_displacement>
</event>
<event>
 4   1200 +8.6263000e+09 1.25022100e-02 7.81665300e-03            nan
       50 -1    0    0    0    0 -3.2371453382e-02 +8.9341764123e-03 +1.3355576128e+01 1.3355619281e+01 4.9935713700e-03 0.0000e+00 0.0000e+00
       11 -1    0    0    0    0 +1.4632134955e-18 -4.0383134311e-19 -6.0368186129e-16 5.1100000000e-04 5.1099893000e-04 0.0000e+00 -1.0000e+00
       50  1    1    2    0    0 -2.1348500583e-02 +1.2934028974e-02 +1.3225789156e+01 1.3225813653e+01 4.9935713700e-03 0.0000e+00 0.0000e+00
       11  1    1    2    0    0 -1.1022952799e-02 -3.9998525618e-03 +1.2978697204e-01 1.3031662803e-01 5.1099893000e-04 0.0000e+00 -1.0000e+00
<vert_displacement>
294.86075867012960
</vert_displacement>
</event>
<event>
 4   1200 +8.6263000e+09 1.30813600e-02 7.81665300e-03            nan
       50 -1    0    0    0    0 -2.2745977645e-02 +1.9919333124e-02 +8.2812849074e+00 8.2813416070e+00 4.9935713700e-03 0.0000e+00 0.0000e+00
       11 -1    0    0    0    0 -2.7635176112e-18 +2.4200950493e-18 +1.0061329103e-15 5.1100000000e-04 5.1099893000e-04 0.0000e+00 1.0000e+00
       50  1    1    2    0    0 -3.4435385049e-02 +1.9749190300e-02 +8.1356360122e+00 8.1357343912e+00 4.9935713700e-03 0.0000e+00 0.0000e+00
       11  1    1    2    0    0 +1.1689407404e-02 +1.7014282382e-04 +1.4564889523e-01 1.4611821582e-01 5.1099893000e-04 0.0000e+00 1.0000e+00
<vert_displacement>
334.91179044192660
</vert_displacement>
</event>
<event>
 4   1200 +8.6263000e+09 5.69361600e-02 7.81665300e-03            nan
       50 -1    0    0    0    0 +6.7781565167e-02 -2.1558222698e-02 +2.5758504588e+01 2.5758603275e+01 4.9935713700e-03 0.0000e+00 0.0000e+00
       11 -1    0    0    0    0 -3.1770846505e-18 +1.0104856425e-18 -1.2073629363e-15 5.1100000000e-04 5.1099893000e-04 0.0000e+00 1.0000e+00
       50  1    1    2    0    0 +2.0140807598e-03 -2.6781541143e-02 +2.2087279685e+01 2.2087296579e+01 4.9935713700e-03 0.0000e+00 0.0000e+00
       11  1    1    2    0    0 +6.5767484407e-02 +5.2233184449e-03 +3.6712249029e+00 3.6718176962e+00 5.1099893000e-04 0.0000e+00 1.0000e+00
<vert_displacement>
26.673157874184589
</vert_displacement>
</event>
<event>
 4   1200 +8.6263000e+09 3.00855500e-02 7.81665300e-03            nan
       50 -1    0    0    0    0 +4.5448107747e-02 -3.0794072870e-02 +2.2355414204e+01 2.2355482168e+01 4.9935713700e-03 0.0000e+00 0.0000e+00
       11 -1    0    0    0    0 +5.3322907572e-18 -3.6129766074e-18 +2.6228939871e-15 5.1100000000e-04 5.1099893000e-04 0.0000e+00 1.0000e+00
       50  1    1    2    0    0 +1.4116463782e-02 -3.2642747501e-02 +2.1458138740e+01 2.1458168793e+01 4.9935713700e-03 0.0000e+00 0.0000e+00
       11  1    1    2    0    0 +3.1331643965e-02 +1.8486746313e-03 +8.9727546422e-01 8.9782437554e-01 5.1099893000e-04 0.0000e+00 1.0000e+00
<vert_displacement>
352.76063353133213
</vert_displacement>
</event>
<event>
 4   1200 +8.6263000e+09 1.06496500e-02 7.81665300e-03            nan
       50 -1    0    0    0    0 +4.1516236430e-02 -2.6273298678e-02 +1.9151468208e+01 1.9151531880e+01 4.9935713700e-03 0.0000e+00 0.0000e+00
       11 -1    0    0    0    0 +1.7448685302e-18 -1.1042294771e-18 +8.0490904418e-16 5.1100000000e-04 5.1099893000e-04 0.0000e+00 1.0000e+00
       50  1    1    2    0    0 +4.9403532279e-02 -3.0976799354e-02 +1.9064472042e+01 1.9064561874e+01 4.9935713700e-03 0.0000e+00 0.0000e+00
       11  1    1    2    0    0 -7.8872958482e-03 +4.7035006763e-03 +8.6996165849e-02 8.7481005634e-02 5.1099893000e-04 0.0000e+00 1.0000e+00
<vert_displacement>
477.96457334442630
</vert_displacement>
</event>
<event>
 4   1200 +8.6263000e+09 8.89299800e-03 7.81665300e-03            nan
       50 -1    0    0    0    0 -2.3495686956e-02 -1.0827967941e-02 +6.8917929617e+00 6.8918433278e+00 4.9935713700e-03 0.0000e+00 0.0000e+00
       11 -1    0    0    0    0 +1.2774292969e-18 +5.8870223708e-19 -3.7469763083e-16 5.1100000000e-04 5.1099893000e-04 0.0000e+00 -1.0000e+00
       50  1    1    2    0    0 -2.0515982906e-02 -3.9380047704e-03 +6.8384103586e+00 6.8384440907e+00 4.9935713700e-03 0.0000e+00 0.0000e+00
       11  1    1    2    0    0 -2.9797040506e-03 -6.8899631701e-03 +5.3382603031e-02 5.3910237015e-02 5.1099893000e-04 0.0000e+00 -1.0000e+00
<vert_displacement>
125.66856173747765
</vert_displacement>
</event>
<event>
 4   1200 +8.6263000e+09 1.38521200e-02 7.81665300e-03            nan
       50 -1    0    0    0    0 -1.1368030310e-02 +2.4839570054e-02 +1.3529432917e+01 1.3529461417e+01 4.9935713700e-03 0.0000e+00 0.0000e+00
       11 -1    0    0    0    0 -1.1660709789e-20 +2.5479085626e-20 +1.3877759520e-17 5.1100000000e-04 5.1099893000e-04 0.0000e+00 1.0000e+00
       50  1    1    2    0    0 +1.6673712354e-03 +2.5327962053e-02 +1.3364059405e+01 1.3364084443e+01 4.9935713700e-03 0.0000e+00 0.0000e+00
       11  1    1    2    0    0 -1.3035401545e-02 -4.8839199934e-04 +1.6537351199e-01 1.6588797366e-01 5.1099893000e-04 0.0000e+00 1.0000e+00
<vert_displacement>
463.37448636686935
</vert_displacement>
</event>
<event>
 4   1200 +8.6263000e+09 7.97422400e-03 7.81665300e-03            nan
       50 -1    0    0    0    0 -7.9043497689e-03 -2.2118693874e-02 +1.0216869687e+01 1.0216897907e+01 4.9935713700e-03 0.0000e+00 0.0000e+00
       11 -1    0    0    0    0 +3.1673015010e-19 +8.8630405227e-19 -4.0939365842e-16 5.1100000000e-04 5.1099893000e-04 0.0000e+00 1.0000e+00
       50  1    1    2    0    0 -2.3979042434e-03 -2.4978298718e-02 +1.0178903914e+01 1.0178936069e+01 4.9935713700e-03 0.0000e+00 0.0000e+00
       11  1    1    2    0    0 -5.5064455255e-03 +2.8596048441e-03 +3.7965772617e-02 3.8472838373e-02 5.1099893000e-04 0.0000e+00 1.0000e+00
<vert_displacement>
89.911765541397045
</vert_displacement>
</event>
<event>
 4   1200 +8.6263000e+09 6.86505000e-03 7.81665300e-03            nan
       50 -1    0    0    0    0 -1.9587264171e-02 -1.8283839565e-02 +7.5635909470e+00 7.5636400568e+00 4.9935713700e-03 0.0000e+00 0.0000e+00
       11 -1    0    0    0    0 -1.4195815966e-18 -1.3251162559e-18 +5.4816917866e-16 5.1100000000e-04 5.1099893000e-04 0.0000e+00 1.0000e+00
       50  1    1    2    0    0 -2.3769718557e-02 -2.0286669860e-02 +7.5417953341e+00 7.5418617295e+00 4.9935713700e-03 0.0000e+00 0.0000e+00
       11  1    1    2    0    0 +4.1824543857e-03 +2.0028302945e-03 +2.1795612842e-02 2.2289327333e-02 5.1099893000e-04 0.0000e+00 1.0000e+00
<vert_displacement>
163.43226763683069
</vert_displacement>
</event>
<event>
 4   1200 +8.6263000e+09 3.05733500e-02 7.81665300e-03            nan
       50 -1    0    0    0    0 -2.8812181896e-03 -3.2632315992e-02 +1.4042017612e+01 1.4042056713e+01 4.9935713700e-03 0.0000e+00 0.0000e+00
       11 -1    0    0    0    0 -1.5661320777e-19 -1.7737815564e-18 +7.6327625232e-16 5.1100000000e-04 5.1099893000e-04 0.0000e+00 1.0000e+00
       50  1    1    2    0    0 -1.9592748888e-02 -5.4336700817e-03 +1.3086723732e+01 1.3086740479e+01 4.9935713700e-03 0.0000e+00 0.0000e+00
       11  1    1    2    0    0 +1.6711530699e-02 -2.7198645910e-02 +9.5529388055e-01 9.5582723383e-01 5.1099893000e-04 0.0000e+00 1.0000e+00
<vert_displacement>
458.23516971845345
</vert_displacement>
</event>
<event>
 4   1200 +8.6263000e+09 7.34242600e-03 7.81665300e-03            nan
       50 -1    0    0    0    0 +3.8964951558e-02 -6.0280708388e-03 +1.2109304396e+01 1.2109369616e+01 4.9935713700e-03 0.0000e+00 0.0000e+00
       11 -1    0    0    0    0 +1.9201773411e-18 -2.9706093739e-19 +5.9674171246e-16 5.1100000000e-04 5.1099893000e-04 0.0000e+00 1.0000e+00
       50  1    1    2    0    0 +4.2325575908e-02 -1.0144115691e-02 +1.2080871628e+01 1.2080951063e+01 4.9935713700e-03 0.0000e+00 0.0000e+00
       11  1    1    2    0    0 -3.3606243500e-03 +4.1160448519e-03 +2.8432768281e-02 2.8929553285e-02 5.1099893000e-04 0.0000e+00 1.0000e+00
<vert_displacement>
231.45464564575488
</vert_displacement>
</event>
<event>
 4   1200 +8.6263000e+09 1.31921500e-02 7.81665300e-03            nan
       50 -1    0    0    0    0 +2.0123558751e-02 +1.8109817223e-02 +1.5936437138e+01 1.5936460916e+01 4.9935713700e-03 0.0000e+00 0.0000e+00
       11 -1    0    0    0    0 -2.0152596458e-18 -1.8135949159e-18 -1.5959432951e-15 5.1100000000e-04 5.1099893000e-04 0.0000e+00 1.0000e+00
       50  1    1    2    0    0 +9.1186322199e-03 +2.3603456654e-02 +1.5789189622e+01 1.5789210687e+01 4.9935713700e-03 0.0000e+00 0.0000e+00
       11  1    1    2    0    0 +1.1004926531e-02 -5.4936394310e-03 +1.4724751666e-01 1.4776122889e-01 5.1099893000e-04 0.0000e+00 1.0000e+00
<vert_displacement>
313.20211780675857
</vert_displacement>
</event>
<event>
 4   1200 +8.6263000e+09 1.11450600e-02 7.81665300e-03            nan
       50 -1    0    0    0    0 +1.7212180198e-02 +3.9563415192e-02 +1.8235376387e+01 1.8235428112e+01 4.9935713700e-03 0.0000e+00 0.0000e+00
       11 -1    0    0    0    0 +5.5016058100e-19 +1.2645830591e-18 +5.8286545647e-16 5.1100000000e-04 5.1099893000e-04 0.0000e+00 1.0000e+00
       50  1    1    2    0    0 +9.0222976627e-03 +4.5157028744e-02 +1.8137705625e+01 1.8137764769e+01 4.9935713700e-03 0.0000e+00 0.0000e+00
       11  1    1    2    0    0 +8.1898825348e-03 -5.5936135516e-03 +9.7670762116e-02 9.8174342782e-02 5.1099893000e-04 0.0000e+00 1.0000e+00
<vert_displacement>
488.19145115695966
</vert_displacement>
</event>
<event>
 4   1200 +8.6263000e+09 6.36143200e-03 7.81665300e-03            nan
       50 -1    0    0    0    0 -2.3790537659e-03 +5.6054043711e-03 +2.4512094772e+00 2.4512221273e+00 4.9935713700e-03 0.0000e+00 0.0000e+00
       11 -1    0    0    0    0 -0.0000000000e+00 +0.0000000000e+00 +0.0000000000e+00 5.1100000000e-04 5.1099893000e-04 0.0000e+00 1.0000e+00
       50  1    1    2    0    0 -5.4420048154e-03 +8.0319565973e-03 +2.4359035891e+00 2.4359280283e+00 4.9935713700e-03 0.0000e+00 0.0000e+00
       11  1    1    2    0    0 +3.0629510495e-03 -2.4265522262e-03 +1.5305888136e-02 1.5805099063e-02 5.1099893000e-04 0.0000e+00 1.0000e+00
<vert_displacement>
183.29541320030765
</vert_displacement>
</event>
<event>
 4   1200 +8.6263000e+09 1.23145200e-02 7.81665300e-03            nan
       50 -1    0    0    0    0 +1.0988199366e-02 -4.8558935246e-02 +2.5080321518e+01 2.5080371431e+01 4.9935713700e-03 0.0000e+00 0.0000e+00
       11 -1    0    0    0    0 +1.2342662562e-18 -5.4544564778e-18 +2.8171853743e-15 5.1100000000e-04 5.1099893000e-04 0.0000e+00 1.0000e+00
       50  1    1    2    0    0 +5.3150930839e-03 -3.8563526534e-02 +2.4955736875e+01 2.4955767736e+01 4.9935713700e-03 0.0000e+00 0.0000e+00
       11  1    1    2    0    0 +5.6731062818e-03 -9.9954087122e-03 +1.2458464347e-01 1.2511469474e-01 5.1099893000e-04 0.0000e+00 1.0000e+00
<vert_displacement>
447.47565935170593
</vert_displacement>
</event>
<event>
 4   1200 +8.6263000e+09 1.46396700e-02 7.81665300e-03            nan
       50 -1    0    0    0    0 +2.4309804896e-03 +2.6551573305e-03 +1.7907725820e+00 1.7907831627e+00 4.9935713700e-03 0.0000e+00 0.0000e+00
       11 -1    0    0    0    0 +1.4129333159e-20 +1.5432292720e-20 +1.0408319825e-17 5.1100000000e-04 5.1099893000e-04 0.0000e+00 1.0000e+00
       50  1    1    2    0    0 +2.3777636610e-03 +1.6102888599e-02 +1.5803334511e+00 1.5804251672e+00 4.9935713700e-03 0.0000e+00 0.0000e+00
       11  1    1    2    0    0 +5.3216828634e-05 -1.3447731268e-02 +2.1043913095e-01 2.1086899550e-01 5.1099893000e-04 0.0000e+00 1.0000e+00
<vert_displacement>
289.76695674868660
</vert_displacement>
</event>
<event>
 4   1200 +8.6263000e+09 1.73712300e-02 7.81665300e-03            nan
       50 -1    0    0    0    0 +3.3744465974e-04 +2.9193834697e-02 +1.5435530965e+01 1.5435559384e+01 4.9935713700e-03 0.0000e+00 0.0000e+00
       11 -1    0    0    0    0 +2.6394880785e-20 +2.2835382462e-18 +1.2073653795e-15 5.1100000000e-04 5.1099893000e-04 0.0000e+00 1.0000e+00
       50  1    1    2    0    0 -1.1700868737e-02 +1.7180995524e-02 +1.5159743707e+01 1.5159758781e+01 4.9935713700e-03 0.0000e+00 0.0000e+00
       11  1    1    2    0    0 +1.2038313397e-02 +1.2012839173e-02 +2.7578725824e-01 2.7631160348e-01 5.1099893000e-04 0.0000e+00 1.0000e+00
<vert_displacement>
110.60822424321933
</vert_displacement>
</event>
<event>
 4   1200 +8.6263000e+09 1.88725000e-02 7.81665300e-03            nan
       50 -1    0    0    0    0 -1.3409238784e-02 -2.6360955312e-02 +1.1537233950e+01 1.1537272939e+01 4.9935713700e-03 0.0000e+00 0.0000e+00
       11 -1    0    0    0    0 -3.6291403098e-19 -7.1344546150e-19 +3.1224919972e-16 5.1100000000e-04 5.1099893000e-04 0.0000e+00 1.0000e+00
       50  1    1    2    0    0 +5.1785575787e-03 -2.5626619903e-02 +1.1203459012e+01 1.1203490631e+01 4.9935713700e-03 0.0000e+00 0.0000e+00
       11  1    1    2    0    0 -1.8587796363e-02 -7.3433540955e-04 +3.3377493791e-01 3.3429330792e-01 5.1099893000e-04 0.0000e+00 1.0000e+00
<vert_displacement>
304.55284049656626
</vert_displacement>
</event>
<event>
 4   1200 +8.6263000e+09 3.45603900e-02 7.81665300e-03            nan
       50 -1    0    0    0    0 +1.6441083673e-02 +1.2723148983e-02 +5.1971773899e+00 5.1972213678e+00 4.9935713700e-03 0.0000e+00 0.0000e+00
       11 -1    0    0    0    0 +6.3657220194e-19 +4.9261977644e-19 +2.0122631334e-16 5.1100000000e-04 5.1099893000e-04 0.0000e+00 1.0000e+00
       50  1    1    2    0    0 -1.6623279237e-02 +2.8651988299e-02 +3.4882202936e+00 3.4883811464e+00 4.9935713700e-03 0.0000e+00 0.0000e+00
       11  1    1    2    0    0 +3.3064362910e-02 -1.5928839316e-02 +1.7089570963e+00 1.7093512214e+00 5.1099893000e-04 0.0000e+00 1.0000e+00
<vert_displacement>
154.02037935526170
</vert_displacement>
</event>
<event>
 4   1200 +8.6263000e+09 9.13254000e-03 7.81665300e-03            nan
       50 -1    0    0    0    0 +1.1380142110e-02 +4.1344674510e-03 +1.7493255227e+01 1.7493260130e+01 4.9935713700e-03 0.0000e+00 0.0000e+00
       11 -1    0    0    0    0 +1.6070048738e-18 +5.8383360067e-19 +2.4702456381e-15 5.1100000000e-04 5.1099893000e-04 0.0000e+00 1.0000e+00
       50  1    1    2    0    0 +5.2399670620e-03 +8.7277367138e-03 +1.7435858920e+01 1.7435862607e+01 4.9935713700e-03 0.0000e+00 0.0000e+00
       11  1    1    2    0    0 +6.1401750485e-03 -4.5932692628e-03 +5.7396307061e-02 5.7908523174e-02 5.1099893000e-04 0.0000e+00 1.0000e+00
<vert_displacement>
5.7284026158329162
</vert_displacement>
</event>
<event>
 4   1200 +8.6263000e+09 2.20642500e-02 7.81665300e-03            nan
       50 -1    0    0    0    0 -1.1757054103e-02 -9.0969177518e-03 +4.1032050778e+00 4.1032350443e+00 4.9935713700e-03 0.0000e+00 0.0000e+00
       11 -1    0    0    0    0 -3.1811391968e-19 -2.4613786223e-19 +1.1102157387e-16 5.1100000000e-04 5.1099893000e-04 0.0000e+00 1.0000e+00
       50  1    1    2    0    0 -4.0944814776e-03 -2.8533415108e-02 +3.5854661019e+00 3.5855854507e+00 4.9935713700e-03 0.0000e+00 0.0000e+00
       11  1    1    2    0    0 -7.6625726254e-03 +1.9436497356e-02 +5.1773897592e-01 5.1816059360e-01 5.1099893000e-04 0.0000e+00 1.0000e+00
<vert_displacement>
9.7484902415608161
</vert_displacement>
</event>
<event>
 4   1200 +8.6263000e+09 1.69236400e-02 7.81665300e-03            nan
       50 -1    0    0    0    0 +2.3453353400e-02 -4.2759761370e-03 +1.5404168811e+01 1.5404188068e+01 4.9935713700e-03 0.0000e+00 0.0000e+00
       11 -1    0    0    0    0 -6.1275152239e-19 +1.1171583197e-19 -4.0245536445e-16 5.1100000000e-04 5.1099893000e-04 0.0000e+00 1.0000e+00
       50  1    1    2    0    0 +3.9014422092e-02 -1.5888935955e-03 +1.5143887653e+01 1.5143938815e+01 4.9935713700e-03 0.0000e+00 0.0000e+00
       11  1    1    2    0    0 -1.5561068692e-02 -2.6870825415e-03 +2.6028115873e-01 2.6076025383e-01 5.1099893000e-04 0.0000e+00 1.0000e+00
<vert_displacement>
75.403177142286367
</vert_displacement>
</event>
<event>
 4   1200 +8.6263000e+09 1.30385000e-02 7.81665300e-03            nan
       50 -1    0    0    0    0 +3.8635628085e-02 -1.8514655217e-02 +1.1266427010e+01 1.1266509575e+01 4.9935713700e-03 0.0000e+00 0.0000e+00
       11 -1    0    0    0    0 -1.9036138832e-19 +9.1223454773e-20 -5.5510749876e-17 5.1100000000e-04 5.1099893000e-04 0.0000e+00 1.0000e+00
       50  1    1    2    0    0 +4.9426992471e-02 -1.4068025589e-02 +1.1122606695e+01 1.1122726535e+01 4.9935713700e-03 0.0000e+00 0.0000e+00
       11  1    1    2    0    0 -1.0791364386e-02 -4.4466296277e-03 +1.4382031476e-01 1.4429404048e-01 5.1099893000e-04 0.0000e+00 1.0000e+00
<vert_displacement>
122.39477614986755
</vert_displacement>
</event>
<event>
 4   1200 +8.6263000e+09 2.28540900e-02 7.81665300e-03            nan
       50 -1    0    0    0    0 +5.3240332315e-02 -1.8057916176e-02 +1.9859197528e+01 1.9859277731e+01 4.9935713700e-03 0.0000e+00 0.0000e+00
       11 -1    0    0    0    0 -4.4645615095e-19 +1.5142782548e-19 -1.6653278640e-16 5.1100000000e-04 5.1099893000e-04 0.0000e+00 1.0000e+00
       50  1    1    2    0    0 +5.0553602921e-02 -3.9865029330e-02 +1.9359937544e+01 1.9360045236e+01 4.9935713700e-03 0.0000e+00 0.0000e+00
       11  1    1    2    0    0 +2.6867293935e-03 +2.1807113154e-02 +4.9925998387e-01 4.9974349552e-01 5.1099893000e-04 0.0000e+00 1.0000e+00
<vert_displacement>
378.14086203840503
</vert_displacement>
</event>
<event>
 4   1200 +8.6263000e+09 1.97306500e-02 7.81665300e-03            nan
       50 -1    0    0    0    0 -1.3502732235e-01 +2.2752202786e-02 +4.2455182902e+01 4.2455404017e+01 4.9935713700e-03 0.0000e+00 0.0000e+00
       11 -1    0    0    0    0 +4.3254868786e-18 -7.2884770946e-19 -1.3600161314e-15 5.1100000000e-04 5.1099893000e-04 0.0000e+00 1.0000e+00
       50  1    1    2    0    0 -1.5154991102e-01 +2.9788958899e-02 +4.2095554069e+01 4.2095837704e+01 4.9935713700e-03 0.0000e+00 0.0000e+00
       11  1    1    2    0    0 +1.6522588668e-02 -7.0367561130e-03 +3.5962883354e-01 3.6007731240e-01 5.1099893000e-04 0.0000e+00 1.0000e+00
<vert_displacement>
427.24074614433152
</vert_displacement>
</event>
<event>
 4   1200 +8.6263000e+09 2.84929600e-02 7.81665300e-03            nan
       50 -1    0    0    0    0 -3.1340138072e-02 -5.1930354368e-02 +2.6231669771e+01 2.6231740371e+01 4.9935713700e-03 0.0000e+00 0.0000e+00
       11 -1    0    0    0    0 -2.2217687260e-18 -3.6814527428e-18 +1.8596185950e-15 5.1100000000e-04 5.1099893000e-04 0.0000e+00 1.0000e+00
       50  1    1    2    0    0 -9.8081507418e-03 -3.1299627642e-02 +2.5437687191e+01 2.5437708829e+01 4.9935713700e-03 0.0000e+00 0.0000e+00
       11  1    1    2    0    0 -2.1531987331e-02 -2.0630726726e-02 +7.9398257946e-01 7.9454254195e-01 5.1099893000e-04 0.0000e+00 1.0000e+00
<vert_displacement>
498.01560258743865
</vert_displacement>
</event>
<event>
 4   1200 +8.6263000e+09 5.73406600e-03 7.81665300e-03            nan
       50 -1    0    0    0    0 -2.1968194261e-03 -1.6134224341e-03 +7.0528793737e-01 7.0531088146e-01 4.9935713700e-03 0.0000e+00 0.0000e+00
       11 -1    0    0    0    0 -2.2693642413e-19 -1.6667019303e-19 +7.2857841926e-17 5.1100000000e-04 5.1099893000e-04 0.0000e+00 1.0000e+00
       50  1    1    2    0    0 -6.6091371200e-04 -3.9743802012e-03 +6.9741786695e-01 6.9744738110e-01 4.9935713700e-03 0.0000e+00 0.0000e+00
       11  1    1    2    0    0 -1.5359057141e-03 +2.3609577671e-03 +7.8700704204e-03 8.3745003594e-03 5.1099893000e-04 0.0000e+00 1.0000e+00
<vert_displacement>
186.34637272219913
</vert_displacement>
</event>
<event>
 4   1200 +8.6263000e+09 1.01098300e-02 7.81665300e-03            nan
       50 -1    0    0    0    0 -9.3670195480e-03 +4.5817541054e-02 +2.1356556534e+01 2.1356608320e+01 4.9935713700e-03 0.0000e+00 0.0000e+00
       11 -1    0    0    0    0 -1.4912672586e-18 +7.2943371681e-18 +3.4000498614e-15 5.1100000000e-04 5.1099893000e-04 0.0000e+00 1.0000e+00
       50  1    1    2    0    0 -7.8938014457e-04 +4.3589139935e-02 +2.1280683720e+01 2.1280728962e+01 4.9935713700e-03 0.0000e+00 0.0000e+00
       11  1    1    2    0    0 -8.5776394035e-03 +2.2284011187e-03 +7.5872814630e-02 7.6390357959e-02 5.1099893000e-04 0.0000e+00 1.0000e+00
<vert_displacement>
250.87026302245329
</vert_displacement>
</event>
<event>
 4   1200 +8.6263000e+09 1.05686300e-02 7.81665300e-03            nan
       50 -1    0    0    0    0 -4.8857013254e-02 -1.6061265887e-03 +2.6887546703e+01 2.6887591604e+01 4.9935713700e-03 0.0000e+00 0.0000e+00
       11 -1    0    0    0    0 -1.9165001323e-18 -6.3003069870e-20 +1.0547101303e-15 5.1100000000e-04 5.1099893000e-04 0.0000e+00 1.0000e+00
       50  1    1    2    0    0 -5.0645885748e-02 +7.5084353990e-03 +2.6802379678e+01 2.6802429045e+01 4.9935713700e-03 0.0000e+00 0.0000e+00
       11  1    1    2    0    0 +1.7888724934e-03 -9.1145619876e-03 +8.5167025372e-02 8.5673558556e-02 5.1099893000e-04 0.0000e+00 1.0000e+00
<vert_displacement>
54.076507651911903
</vert_displacement>
</event>
<event>
 4   1200 +8.6263000e+09 1.89465300e-02 7.81665300e-03            nan
       50 -1    0    0    0    0 -5.9765568709e-03 +9.7203827127e-03 +4.3459982738e+00 4.3460161225e+00 4.9935713700e-03 0.0000e+00 0.0000e+00
       11 -1    0    0    0    0 -4.9619639060e-19 +8.0702299358e-19 +3.6082123932e-16 5.1100000000e-04 5.1099893000e-04 0.0000e+00 1.0000e+00
       50  1    1    2    0    0 -2.0702202113e-02 -1.2017399192e-03 +3.9897536167e+00 3.9898106324e+00 4.9935713700e-03 0.0000e+00 0.0000e+00
       11  1    1    2    0    0 +1.4725645242e-02 +1.0922122632e-02 +3.5624465716e-01 3.5671649004e-01 5.1099893000e-04 0.0000e+00 1.0000e+00
<vert_displacement>
47.955581436420587
</vert_displacement>
</event>
<event>
 4   1200 +8.6263000e+09 3.38156000e-02 7.81665300e-03            nan
       50 -1    0    0    0    0 -3.5534672074e-02 +1.8697160083e-02 +1.3831171692e+01 1.3831230879e+01 4.9935713700e-03 0.0000e+00 0.0000e+00
       11 -1    0    0    0    0 -1.6222700443e-18 +8.5358442745e-19 +6.3143668437e-16 5.1100000000e-04 5.1099893000e-04 0.0000e+00 1.0000e+00
       50  1    1    2    0    0 -2.2437199748e-02 -1.4832165713e-02 +1.2632680187e+01 1.2632709807e+01 4.9935713700e-03 0.0000e+00 0.0000e+00
       11  1    1    2    0    0 -1.3097472326e-02 +3.3529325796e-02 +1.1984915055e+00 1.1990320718e+00 5.1099893000e-04 0.0000e+00 1.0000e+00
<vert_displacement>
374.30599112001710
</vert_displacement>
</event>
<event>
 4   1200 +8.6263000e+09 6.11313200e-03 7.81665300e-03            nan
       50 -1    0    0    0    0 +4.2688351556e-03 -2.4967182638e-02 +1.1116346619e+01 1.1116376598e+01 4.9935713700e-03 0.0000e+00 0.0000e+00
       11 -1    0    0    0    0 +2.9310897001e-19 -1.7143096232e-18 +7.6327634799e-16 5.1100000000e-04 5.1099893000e-04 0.0000e+00 1.0000e+00
       50  1    1    2    0    0 +6.3708097723e-03 -2.7767649764e-02 +1.1104158597e+01 1.1104196266e+01 4.9935713700e-03 0.0000e+00 0.0000e+00
       11  1    1    2    0    0 -2.1019746167e-03 +2.8004671257e-03 +1.2188021627e-02 1.2691331865e-02 5.1099893000e-04 0.0000e+00 1.0000e+00
<vert_displacement>
261.24664414209747
</vert_displacement>
</event>
<event>
 4   1200 +8.6263000e+09 1.65604400e-02 7.81665300e-03            nan
       50 -1    0    0    0    0 +1.3469544786e-02 -4.7929617953e-03 +4.2688826947e+00 4.2689095561e+00 4.9935713700e-03 0.0000e+00 0.0000e+00
       11 -1    0    0    0    0 +2.8462291459e-19 -1.0127935111e-19 +9.0205114862e-17 5.1100000000e-04 5.1099893000e-04 0.0000e+00 1.0000e+00
       50  1    1    2    0    0 +1.0905109207e-02 +1.1191780184e-02 +4.0090213940e+00 4.0090549573e+00 4.9935713700e-03 0.0000e+00 0.0000e+00
       11  1    1    2    0    0 +2.5644355794e-03 -1.5984741979e-02 +2.5986130071e-01 2.6036559878e-01 5.1099893000e-04 0.0000e+00 1.0000e+00
<vert_displacement>
349.10925313881677
</vert_displacement>
</event>
<event>
 4   1200 +8.6263000e+09 4.39696000e-02 7.81665300e-03            nan
       50 -1    0    0    0    0 +6.3665491419e-02 -1.4961076501e-02 +2.8546653399e+01 2.8546728750e+01 4.9935713700e-03 0.0000e+00 0.0000e+00
       11 -1    0    0    0    0 -2.0427345396e-18 +4.8003254256e-19 -9.1593159165e-16 5.1100000000e-04 5.1099893000e-04 0.0000e+00 1.0000e+00
       50  1    1    2    0    0 +3.3200908235e-02 -4.9025155563e-02 +2.6537876327e+01 2.6537942849e+01 4.9935713700e-03 0.0000e+00 0.0000e+00
       11  1    1    2    0    0 +3.0464583184e-02 +3.4064079062e-02 +2.0087770715e+00 2.0092969011e+00 5.1099893000e-04 0.0000e+00 1.0000e+00
<vert_displacement>
372.78618890484154
</vert_displacement>
</event>
<event>
 4   1200 +8.6263000e+09 5.70862200e-03 7.81665300e-03            nan
       50 -1    0    0    0    0 +7.0066152473e-03 -3.8620441951e-04 +1.0987880195e+01 1.0987883571e+01 4.9935713700e-03 0.0000e+00 0.0000e+00
       11 -1    0    0    0    0 +1.9468710598e-19 -1.0731147366e-20 +3.0531126951e-16 5.1100000000e-04 5.1099893000e-04 0.0000e+00 1.0000e+00
       50  1    1    2    0    0 +7.0100786508e-03 +2.3803812269e-03 +1.0980386946e+01 1.0980390577e+01 4.9935713700e-03 0.0000e+00 0.0000e+00
       11  1    1    2    0    0 -3.4634035192e-06 -2.7665856464e-03 +7.4932494582e-03 8.0039937208e-03 5.1099893000e-04 0.0000e+00 1.0000e+00
<vert_displacement>
22.100320867458752
</vert_displacement>
</event>
<event>
 4   1200 +8.6263000e+09 6.06344100e-02 7.81665300e-03            nan
       50 -1    0    0    0    0 +1.8053241162e-02 -7.3501514162e-02 +3.1955414386e+01 3.1955504407e+01 4.9935713700e-03 0.0000e+00 0.0000e+00
       11 -1    0    0    0    0 -8.4674669487e-19 +3.4474232980e-18 -1.4987968793e-15 5.1100000000e-04 5.1099893000e-04 0.0000e+00 1.0000e+00
       50  1    1    2    0    0 +7.6112211340e-02 -6.1529129055e-02 +2.7856086228e+01 2.7856258611e+01 4.9935713700e-03 0.0000e+00 0.0000e+00
       11  1    1    2    0    0 -5.8058970178e-02 -1.1972385107e-02 +4.0993281580e+00 4.0997567964e+00 5.1099893000e-04 0.0000e+00 1.0000e+00
<vert_displacement>
359.23671155574027
</vert_displacement>
</event>
<event>
 4   1200 +8.6263000e+09 1.60555200e-02 7.81665300e-03            nan
       50 -1    0    0    0    0 +3.7123451564e-02 -2.9814597477e-02 +2.5345013148e+01 2.5345058364e+01 4.9935713700e-03 0.0000e+00 0.0000e+00
       11 -1    0    0    0    0 -2.8457932136e-19 +2.2855142933e-19 -1.9428868647e-16 5.1100000000e-04 5.1099893000e-04 0.0000e+00 1.0000e+00
       50  1    1    2    0    0 +4.1882045969e-02 -1.5160764667e-02 +2.5115098925e+01 2.5115138919e+01 4.9935713700e-03 0.0000e+00 0.0000e+00
       11  1    1    2    0    0 -4.7585944050e-03 -1.4653832810e-02 +2.2991422226e-01 2.3043044450e-01 5.1099893000e-04 0.0000e+00 1.0000e+00
<vert_displacement>
225.35164186736418
</vert_displacement>
</event>
<event>
 4   1200 +8.6263000e+09 1.48337000e-02 7.81665300e-03            nan
       50 -1    0    0    0    0 +4.6916502113e-02 +3.8220383143e-02 +1.5223663615e+01 1.5223784706e+01 4.9935713700e-03 0.0000e+00 0.0000e+00
       11 -1    0    0    0    0 +2.5019528688e-18 +2.0382081558e-18 +8.1184417295e-16 5.1100000000e-04 5.1099893000e-04 0.0000e+00 1.0000e+00
       50  1    1    2    0    0 +5.5927710764e-02 +2.7595586708e-02 +1.5030291400e+01 1.5030421615e+01 4.9935713700e-03 0.0000e+00 0.0000e+00
       11  1    1    2    0    0 -9.0112086513e-03 +1.0624796435e-02 +1.9337221532e-01 1.9387409048e-01 5.1099893000e-04 0.0000e+00 1.0000e+00
<vert_displacement>
125.66697039490735
</vert_displacement>
</event>
<event>
 4   1200 +8.6263000e+09 9.32698200e-03 7.81665300e-03            nan
       50 -1    0    0    0    0 +3.9863733724e-02 -4.7284395727e-02 +2.3035360083e+01 2.3035443648e+01 4.9935713700e-03 0.0000e+00 0.0000e+00
       11 -1    0    0    0    0 +5.4756602357e-18 -6.4949582306e-18 +3.1641242162e-15 5.1100000000e-04 5.1099893000e-04 0.0000e+00 1.0000e+00
       50  1    1    2    0    0 +3.1948636586e-02 -4.8191283596e-02 +2.2974488283e+01 2.2974561583e+01 4.9935713700e-03 0.0000e+00 0.0000e+00
       11  1    1    2    0    0 +7.9150971377e-03 +9.0688786924e-04 +6.0871800421e-02 6.1393064875e-02 5.1099893000e-04 0.0000e+00 1.0000e+00
<vert_displacement>
239.17750790348086
</vert_displacement>
</event>
<event>
 4   1200 +8.6263000e+09 7.28719500e-03 7.81665300e-03            nan
       50 -1    0    0    0    0 +2.6073362005e-02 -2.4778804411e-02 +1.4693209350e+01 1.4693254226e+01 4.9935713700e-03 0.0000e+00 0.0000e+00
       11 -1    0    0    0    0 +1.1943759451e-18 -1.1350744845e-18 +6.7307069186e-16 5.1100000000e-04 5.1099893000e-04 0.0000e+00 1.0000e+00
       50  1    1    2    0    0 +2.5878459029e-02 -3.0037525166e-02 +1.4665586691e+01 1.4665641134e+01 4.9935713700e-03 0.0000e+00 0.0000e+00
       11  1    1    2    0    0 +1.9490297643e-04 +5.2587207550e-03 +2.7622659251e-02 2.8124092077e-02 5.1099893000e-04 0.0000e+00 1.0000e+00
<vert_displacement>
432.52401016854571
</vert_displacement>
</event>
<event>
 4   1200 +8.6263000e+09 1.90301000e-02 7.81665300e-03            nan
       50 -1    0    0    0    0 -8.8121340298e-02 -8.5040280806e-03 +2.8029584052e+01 2.8029724308e+01 4.9935713700e-03 0.0000e+00 0.0000e+00
       11 -1    0    0    0    0 +2.2687459190e-18 +2.1894218741e-19 -7.2164136648e-16 5.1100000000e-04 5.1099893000e-04 0.0000e+00 1.0000e+00
       50  1    1    2    0    0 -7.0307173452e-02 -9.0847911902e-04 +2.7695702872e+01 2.7695792576e+01 4.9935713700e-03 0.0000e+00 0.0000e+00
       11  1    1    2    0    0 -1.7814166846e-02 -7.5955489616e-03 +3.3388118054e-01 3.3444273163e-01 5.1099893000e-04 0.0000e+00 1.0000e+00
<vert_displacement>
423.52842941684304
</vert_displacement>
</event>
<event>
 4   1200 +8.6263000e+09 1.82829500e-02 7.81665300e-03            nan
       50 -1    0    0    0    0 +7.3323195357e-02 +4.3187091238e-02 +2.3459795122e+01 2.3459949990e+01 4.9935713700e-03 0.0000e+00 0.0000e+00
       11 -1    0    0    0    0 +7.8074112949e-19 +4.5985364152e-19 +2.4979853718e-16 5.1100000000e-04 5.1099893000e-04 0.0000e+00 1.0000e+00
       50  1    1    2    0    0 +6.6831045990e-02 +5.9317101204e-02 +2.3153092029e+01 2.3153265004e+01 4.9935713700e-03 0.0000e+00 0.0000e+00
       11  1    1    2    0    0 +6.4921493671e-03 -1.6130009965e-02 +3.0670309335e-01 3.0719598600e-01 5.1099893000e-04 0.0000e+00 1.0000e+00
<vert_displacement>
311.10229117400445
</vert_displacement>
</event>
<event>
 4   1200 +8.6263000e+09 9.21484700e-03 7.81665300e-03            nan
       50 -1    0    0    0    0 +3.1814821540e-02 -6.1685395067e-02 +4.4334803866e+01 4.4334858476e+01 4.9935713700e-03 0.0000e+00 0.0000e+00
       11 -1    0    0    0    0 +3.0473745559e-18 -5.9085198122e-18 +4.2465978654e-15 5.1100000000e-04 5.1099893000e-04 0.0000e+00 1.0000e+00
       50  1    1    2    0    0 +2.9144669558e-02 -5.4318632768e-02 +4.4276050805e+01 4.4276093999e+01 4.9935713700e-03 0.0000e+00 0.0000e+00
       11  1    1    2    0    0 +2.6701519821e-03 -7.3667622990e-03 +5.8753060708e-02 5.9275476892e-02 5.1099893000e-04 0.0000e+00 1.0000e+00
<vert_displacement>
398.28408886767113
</vert_displacement>
</event>
<event>
 4   1200 +8.6263000e+09 1.87575000e-02 7.81665300e-03            nan
       50 -1    0    0    0    0 -5.1111468309e-03 -5.7805675529e-02 +2.2871895984e+01 2.2871970148e+01 4.9935713700e-03 0.0000e+00 0.0000e+00
       11 -1    0    0    0    0 +5.9543761127e-19 +6.7342368540e-18 -2.6645266826e-15 5.1100000000e-04 5.1099893000e-04 0.0000e+00 1.0000e+00
       50  1    1    2    0    0 +8.4092849600e-03 -4.4900036087e-02 +2.2547444130e+01 2.2547490957e+01 4.9935713700e-03 0.0000e+00 0.0000e+00
       11  1    1    2    0    0 -1.3520431791e-02 -1.2905639442e-02 +3.2445185426e-01 3.2499019133e-01 5.1099893000e-04 0.0000e+00 1.0000e+00
<vert_displacement>
443.28325617315545
</vert_displacement>
</event>
<event>
 4   1200 +8.6263000e+09 1.47023400e-02 7.81665300e-03            nan
       50 -1    0    0    0    0 -1.1523677195e-02 -1.6796331530e-02 +6.8188511151e+00 6.8188833674e+00 4.9935713700e-03 0.0000e+00 0.0000e+00
       11 -1    0    0    0    0 -1.0553844598e-18 -1.5382752379e-18 +6.2449766502e-16 5.1100000000e-04 5.1099893000e-04 0.0000e+00 1.0000e+00
       50  1    1    2    0    0 -1.8281459736e-02 -4.4454952321e-03 +6.6262903198e+00 6.6263189111e+00 4.9935713700e-03 0.0000e+00 0.0000e+00
       11  1    1    2    0    0 +6.7577825409e-03 -1.2350836297e-02 +1.9256079538e-01 1.9307545628e-01 5.1099893000e-04 0.0000e+00 1.0000e+00
<vert_displacement>
340.30744276598978
</vert_displacement>
</event>
<event>
 4   1200 +8.6263000e+09 1.46511100e-02 7.81665300e-03            nan
       50 -1    0    0    0    0 +8.1985957922e-03 -4.6687570110e-03 +5.1289533053e+00 5.1289644138e+00 4.9935713700e-03 0.0000e+00 0.0000e+00
       11 -1    0    0    0    0 -9.5389087373e-19 +5.4320091115e-19 -5.9674386611e-16 5.1100000000e-04 5.1099893000e-04 0.0000e+00 1.0000e+00
       50  1    1    2    0    0 -1.9093613402e-03 -1.4172400580e-02 +4.9360139268e+00 4.9360371680e+00 4.9935713700e-03 0.0000e+00 0.0000e+00
       11  1    1    2    0    0 +1.0107957132e-02 +9.5036435692e-03 +1.9293937847e-01 1.9343824576e-01 5.1099893000e-04 0.0000e+00 1.0000e+00
<vert_displacement>
364.24489850637411
</vert_displacement>
</event>
<event>
 4   1200 +8.6263000e+09 6.50513400e-03 7.81665300e-03            nan
       50 -1    0    0    0    0 -2.8785310441e-02 -4.3454178023e-02 +1.8733873977e+01 1.8733947154e+01 4.9935713700e-03 0.0000e+00 0.0000e+00
       11 -1    0    0    0    0 -3.3478156667e-18 -5.0538478043e-18 +2.1788042525e-15 5.1100000000e-04 5.1099893000e-04 0.0000e+00 1.0000e+00
       50  1    1    2    0    0 -2.6443699136e-02 -4.6881631524e-02 +1.8716846742e+01 1.8716924803e+01 4.9935713700e-03 0.0000e+00 0.0000e+00
       11  1    1    2    0    0 -2.3416113053e-03 +3.4274535010e-03 +1.7027234804e-02 1.7533351818e-02 5.1099893000e-04 0.0000e+00 1.0000e+00
<vert_displacement>
407.40844346996454
</vert_displacement>
</event>
<event>
 4   1200 +8.6263000e+09 1.50874900e-02 7.81665300e-03            nan
       50 -1    0    0    0    0 -4.2340688144e-03 -2.0223890420e-02 +8.0734782138e+00 8.0735061985e+00 4.9935713700e-03 0.0000e+00 0.0000e+00
       11 -1    0    0    0    0 -1.4556134191e-20 -6.9526896165e-20 +2.7755484717e-17 5.1100000000e-04 5.1099893000e-04 0.0000e+00 1.0000e+00
       50  1    1    2    0    0 -1.8165890729e-02 -1.7344347763e-02 +7.8699873615e+00 7.8700290236e+00 4.9935713700e-03 0.0000e+00 0.0000e+00
       11  1    1    2    0    0 +1.3931821914e-02 -2.8795426561e-03 +2.0349085228e-01 2.0398817492e-01 5.1099893000e-04 0.0000e+00 1.0000e+00
<vert_displacement>
20.888547835712924
</vert_displacement>
</event>
<event>
 4   1200 +8.6263000e+09 3.89435900e-02 7.81665300e-03            nan
       50 -1    0    0    0    0 +2.0927004094e-02 +2.8579282214e-02 +1.1163688986e+01 1.1163746299e+01 4.9935713700e-03 0.0000e+00 0.0000e+00
       11 -1    0    0    0    0 +7.8043842150e-19 +1.0658176296e-18 +4.1633153849e-16 5.1100000000e-04 5.1099893000e-04 0.0000e+00 1.0000e+00
       50  1    1    2    0    0 -1.3209511165e-02 +9.8446836653e-04 +9.4362868531e+00 9.4362974715e+00 4.9935713700e-03 0.0000e+00 0.0000e+00
       11  1    1    2    0    0 +3.4136515260e-02 +2.7594813848e-02 +1.7274021332e+00 1.7279598277e+00 5.1099893000e-04 0.0000e+00 1.0000e+00
<vert_displacement>
161.21155708044660
</vert_displacement>
</event>
<event>
 4   1200 +8.6263000e+09 6.63581400e-03 7.81665300e-03            nan
       50 -1    0    0    0    0 -4.1696244497e-02 +3.3805554002e-02 +1.3479020082e+01 1.3479127891e+01 4.9935713700e-03 0.0000e+00 0.0000e+00
       11 -1    0    0    0    0 -1.3093485110e-18 +1.0615644725e-18 +4.2326917176e-16 5.1100000000e-04 5.1099893000e-04 0.0000e+00 1.0000e+00
       50  1    1    2    0    0 -4.5978362655e-02 +3.3246309852e-02 +1.3460294196e+01 1.3460414707e+01 4.9935713700e-03 0.0000e+00 0.0000e+00
       11  1    1    2    0    0 +4.2821181580e-03 +5.5924414999e-04 +1.8725886263e-02 1.9224183368e-02 5.1099893000e-04 0.0000e+00 1.0000e+00
<vert_displacement>
15.072308788639052
</vert_displacement>
</event>
<event>
 4   1200 +8.6263000e+09 8.77756000e-03 7.81665300e-03            nan
       50 -1    0    0    0    0 +4.5717750857e-02 +1.4268969962e-02 +2.2228415184e+01 2.2228467339e+01 4.9935713700e-03 0.0000e+00 0.0000e+00
       11 -1    0    0    0    0 -7.4211112021e-19 -2.3162034624e-19 -3.6082164550e-16 5.1100000000e-04 5.1099893000e-04 0.0000e+00 1.0000e+00
       50  1    1    2    0    0 +4.2129509076e-02 +7.9133874565e-03 +2.2177319651e+01 2.2177361641e+01 4.9935713700e-03 0.0000e+00 0.0000e+00
       11  1    1    2    0    0 +3.5882417810e-03 +6.3555825055e-03 +5.1095533262e-02 5.1616698338e-02 5.1099893000e-04 0.0000e+00 1.0000e+00
<vert_displacement>
441.86551611678107
</vert_displacement>
</event>
<event>
 4   1200 +8.6263000e+09 1.65680700e-02 7.81665300e-03            nan
       50 -1    0    0    0    0 -9.3833269662e-03 -7.3036022615e-03 +6.3201312979e+00 6.3201444562e+00 4.9935713700e-03 0.0000e+00 0.0000e+00
       11 -1    0    0    0    0 +9.9929096758e-19 +7.7780767920e-19 -6.7307151745e-16 5.1100000000e-04 5.1099893000e-04 0.0000e+00 1.0000e+00
       50  1    1    2    0    0 -1.3302433120e-02 +8.1925182249e-03 +6.0656426669e+00 6.0656648416e+00 4.9935713700e-03 0.0000e+00 0.0000e+00
       11  1    1    2    0    0 +3.9191061541e-03 -1.5496120486e-02 +2.5448863095e-01 2.5499061462e-01 5.1099893000e-04 0.0000e+00 1.0000e+00
<vert_displacement>
414.09276697873759
</vert_displacement>
</event>
<event>
 4   1200 +8.6263000e+09 4.07283600e-02 7.81665300e-03            nan
       50 -1    0    0    0    0 +2.8566987434e-03 +2.0583458775e-02 +7.9890750298e+00 7.9891036172e+00 4.9935713700e-03 0.0000e+00 0.0000e+00
       11 -1    0    0    0    0 -1.8112549357e-19 -1.3050690552e-18 -5.0653754138e-16 5.1100000000e-04 5.1099893000e-04 0.0000e+00 1.0000e+00
       50  1    1    2    0    0 -2.3530581271e-02 -1.6406638673e-02 +5.7747011359e+00 5.7747745420e+00 4.9935713700e-03 0.0000e+00 0.0000e+00
       11  1    1    2    0    0 +2.6387280015e-02 +3.6990097449e-02 +2.2143738939e+00 2.2148400753e+00 5.1099893000e-04 0.0000e+00 1.0000e+00
<vert_displacement>
277.29315985691915
</vert_displacement>
</event>
<event>
 4   1200 +8.6263000e+09 2.04973500e-02 7.81665300e-03            nan
       50 -1    0    0    0    0 -1.0559311308e-01 -1.6583566929e-02 +4.2575268303e+01 4.2575402769e+01 4.9935713700e-03 0.0000e+00 0.0000e+00
       11 -1    0    0    0    0 +2.9256070930e-18 +4.5947126304e-19 -1.1796082462e-15 5.1100000000e-04 5.1099893000e-04 0.0000e+00 1.0000e+00
       50  1    1    2    0    0 -1.1740880016e-01 -3.1655956447e-02 +4.2184949336e+01 4.2185124894e+01 4.9935713700e-03 0.0000e+00 0.0000e+00
       11  1    1    2    0    0 +1.1815687082e-02 +1.5072389517e-02 +3.9031896715e-01 3.9078887474e-01 5.1099893000e-04 0.0000e+00 1.0000e+00
<vert_displacement>
385.45414088694383
</vert_displacement>
</event>
<event>
 4   1200 +8.6263000e+09 2.18436700e-02 7.81665300e-03            nan
       50 -1    0    0    0    0 +2.1732274349e-02 -7.0421141394e-03 +9.4830932514e+00 9.4831220826e+00 4.9935713700e-03 0.0000e+00 0.0000e+00
       11 -1    0    0    0    0 +2.5919806147e-18 -8.3990396233e-19 +1.1310364245e-15 5.1100000000e-04 5.1099893000e-04 0.0000e+00 1.0000e+00
       50  1    1    2    0    0 +4.0502491760e-02 -1.4358790593e-02 +9.0176456199e+00 9.0177493916e+00 4.9935713700e-03 0.0000e+00 0.0000e+00
       11  1    1    2    0    0 -1.8770217412e-02 +7.3166764537e-03 +4.6544763146e-01 4.6588369103e-01 5.1099893000e-04 0.0000e+00 1.0000e+00
<vert_displacement>
13.490411481519493
</vert_displacement>
</event>
<event>
 4   1200 +8.6263000e+09 1.91155600e-02 7.81665300e-03            nan
       50 -1    0    0    0    0 -2.3258443259e-02 -4.8348956623e-02 +2.2188174946e+01 2.2188240375e+01 4.9935713700e-03 0.0000e+00 0.0000e+00
       11 -1    0    0    0    0 -9.7465931417e-19 -2.0260926485e-18 +9.2980906482e-16 5.1100000000e-04 5.1099893000e-04 0.0000e+00 1.0000e+00
       50  1    1    2    0    0 -4.1151418962e-02 -5.0349121473e-02 +2.1849839442e+01 2.1849936775e+01 4.9935713700e-03 0.0000e+00 0.0000e+00
       11  1    1    2    0    0 +1.7892975703e-02 +2.0001648503e-03 +3.3833550396e-01 3.3881460063e-01 5.1099893000e-04 0.0000e+00 1.0000e+00
<vert_displacement>
7.8701579059185951
</vert_displacement>
</event>
<event>
 4   1200 +8.6263000e+09 5.44638400e-03 7.81665300e-03            nan
       50 -1    0    0    0    0 -1.2320950892e-03 -2.0774081873e-03 +9.1350478661e-01 9.1352162787e-01 4.9935713700e-03 0.0000e+00 0.0000e+00
       11 -1    0    0    0    0 -7.2531027674e-20 -1.2229295616e-19 +5.3776239789e-17 5.1100000000e-04 5.1099893000e-04 0.0000e+00 1.0000e+00
       50  1    1    2    0    0 -2.2102001536e-03 -1.2818552939e-04 +9.0885532173e-01 9.0887173628e-01 4.9935713700e-03 0.0000e+00 0.0000e+00
       11  1    1    2    0    0 +9.7810506445e-04 -1.9492226579e-03 +4.6494648746e-03 5.1608915910e-03 5.1099893000e-04 0.0000e+00 1.0000e+00
<vert_displacement>
330.02825698365376
</vert_displacement>
</event>
<event>
 4   1200 +8.6263000e+09 3.05108800e-02 7.81665300e-03            nan
       50 -1    0    0    0    0 +1.6384419748e-02 -8.2600183728e-03 +4.8815097537e+00 4.8815467926e+00 4.9935713700e-03 0.0000e+00 0.0000e+00
       11 -1    0    0    0    0 -7.4527072418e-19 +3.7571973676e-19 -2.2204303633e-16 5.1100000000e-04 5.1099893000e-04 0.0000e+00 1.0000e+00
       50  1    1    2    0    0 +4.2071344512e-02 -8.4435048062e-04 +3.7145515925e+00 3.7147932890e+00 4.9935713700e-03 0.0000e+00 0.0000e+00
       11  1    1    2    0    0 -2.5686924764e-02 -7.4156678922e-03 +1.1669581612e+00 1.1672645036e+00 5.1099893000e-04 0.0000e+00 1.0000e+00
<vert_displacement>
169.35866012208868
</vert_displacement>
</event>
<event>
 4   1200 +8.6263000e+09 7.41518500e-03 7.81665300e-03            nan
       50 -1    0    0    0    0 -2.1294216890e-02 -7.5989836988e-03 +1.2155383203e+01 1.2155405256e+01 4.9935713700e-03 0.0000e+00 0.0000e+00
       11 -1    0    0    0    0 -5.3485392957e-19 -1.9086620151e-19 +3.0531080362e-16 5.1100000000e-04 5.1099893000e-04 0.0000e+00 1.0000e+00
       50  1    1    2    0    0 -1.8195816820e-02 -3.0235435396e-03 +1.2125916225e+01 1.2125931282e+01 4.9935713700e-03 0.0000e+00 0.0000e+00
       11  1    1    2    0    0 -3.0984000702e-03 -4.5754401592e-03 +2.9466977751e-02 2.9984973459e-02 5.1099893000e-04 0.0000e+00 1.0000e+00
<vert_displacement>
170.82795249376056
</vert_displacement>
</event>
<event>
 4   1200 +8.6263000e+09 2.72347200e-02 7.81665300e-03            nan
       50 -1    0    0    0    0 +1.3143372295e-02 +1.5531376519e-02 +6.7951229842e+00 6.7951552799e+00 4.9935713700e-03 0.0000e+00 0.0000e+00
       11 -1    0    0    0    0 -2.6842798071e-20 -3.1719835238e-20 -1.3877725597e-17 5.1100000000e-04 5.1099893000e-04 0.0000e+00 1.0000e+00
       50  1    1    2    0    0 -8.2369451962e-03 +3.1688342634e-02 +6.0004391087e+00 6.0005305125e+00 4.9935713700e-03 0.0000e+00 0.0000e+00
       11  1    1    2    0    0 +2.1380317491e-02 -1.6156966115e-02 +7.9468387555e-01 7.9513576747e-01 5.1099893000e-04 0.0000e+00 1.0000e+00
<vert_displacement>
45.103964488049449
</vert_displacement>
</event>
<event>
 4   1200 +8.6263000e+09 1.86026800e-02 7.81665300e-03            nan
       50 -1    0    0    0    0 +2.0659303808e-02 -1.4084755361e-02 +2.9606926512e+01 2.9606937491e+01 4.9935713700e-03 0.0000e+00 0.0000e+00
       11 -1    0    0    0    0 +9.8773994255e-19 -6.7340485334e-19 +1.4155338516e-15 5.1100000000e-04 5.1099893000e-04 0.0000e+00 1.0000e+00
       50  1    1    2    0    0 +1.9189867349e-02 +3.9427828672e-03 +2.9289308872e+01 2.9289315850e+01 4.9935713700e-03 0.0000e+00 0.0000e+00
       11  1    1    2    0    0 +1.4694364591e-03 -1.8027538228e-02 +3.1761763937e-01 3.1813264111e-01 5.1099893000e-04 0.0000e+00 1.0000e+00
<vert_displacement>
426.38027971973264
</vert_displacement>
</event>
<event>
 4   1200 +8.6263000e+09 5.07676900e-03 7.81665300e-03            nan
       50 -1    0    0    0    0 +5.0028636582e-02 +4.7535209206e-02 +2.6507852982e+01 2.6507943283e+01 4.9935713700e-03 0.0000e+00 0.0000e+00
       11 -1    0    0    0    0 -2.7239317664e-18 -2.5881710002e-18 -1.4432850409e-15 5.1100000000e-04 5.1099893000e-04 0.0000e+00 1.0000e+00
       50  1    1    2    0    0 +4.9202822855e-02 +4.7931753148e-02 +2.6507033991e+01 2.6507123464e+01 4.9935713700e-03 0.0000e+00 0.0000e+00
       11  1    1    2    0    0 +8.2581372716e-04 -3.9654394218e-04 +8.1899104590e-04 1.3308199164e-03 5.1099893000e-04 0.0000e+00 1.0000e+00
<vert_displacement>
496.98175525566376
</vert_displacement>
</event>
<event>
 4   1200 +8.6263000e+09 1.68914700e-02 7.81665300e-03            nan
       50 -1    0    0    0    0 +5.9550929474e-02 +3.9005992634e-02 +1.9540716870e+01 1.9540847180e+01 4.9935713700e-03 0.0000e+00 0.0000e+00
       11 -1    0    0    0    0 +6.7668320202e-19 +4.4322901803e-19 +2.2204313145e-16 5.1100000000e-04 5.1099893000e-04 0.0000e+00 1.0000e+00
       50  1    1    2    0    0 +7.0422419276e-02 +2.7334045638e-02 +1.9282501734e+01 1.9282650350e+01 4.9935713700e-03 0.0000e+00 0.0000e+00
       11  1    1    2    0    0 -1.0871489802e-02 +1.1671946996e-02 +2.5821513603e-01 2.5870782986e-01 5.1099893000e-04 0.0000e+00 1.0000e+00
<vert_displacement>
180.73879910247399
</vert_displacement>
</event>
<event>
 4   1200 +8.6263000e+09 4.38376000e-02 7.81665300e-03            nan
       50 -1    0    0    0    0 -9.9603263068e-02 +6.9844175916e-02 +3.8056619395e+01 3.8056814156e+01 4.9935713700e-03 0.0000e+00 0.0000e+00
       11 -1    0    0    0    0 +7.5185090876e-18 -5.2721573085e-18 -2.8726873995e-15 5.1100000000e-04 5.1099893000e-04 0.0000e+00 1.0000e+00
       50  1    1    2    0    0 -1.1293758419e-01 +2.6804503240e-02 +3.6099996667e+01 3.6100183624e+01 4.9935713700e-03 0.0000e+00 0.0000e+00
       11  1    1    2    0    0 +1.3334321125e-02 +4.3039672676e-02 +1.9566227281e+00 1.9571415326e+00 5.1099893000e-04 0.0000e+00 1.0000e+00
<vert_displacement>
134.15689762342984
</vert_displacement>
</event>
<event>
 4   1200 +8.6263000e+09 2.30954300e-02 7.81665300e-03            nan
       50 -1    0    0    0    0 -4.7725913381e-02 +6.6219082088e-02 +2.6860486688e+01 2.6860611176e+01 4.9935713700e-03 0.0000e+00 0.0000e+00
       11 -1    0    0    0    0 +3.2795197432e-18 -4.5502908525e-18 -1.8457372560e-15 5.1100000000e-04 5.1099893000e-04 0.0000e+00 1.0000e+00
       50  1    1    2    0    0 -3.0282761717e-02 +4.9645173528e-02 +2.6353446454e+01 2.6353511088e+01 4.9935713700e-03 0.0000e+00 0.0000e+00
       11  1    1    2    0    0 -1.7443151664e-02 +1.6573908559e-02 +5.0704023328e-01 5.0761108860e-01 5.1099893000e-04 0.0000e+00 1.0000e+00
<vert_displacement>
50.621184493449654
</vert_displacement>
</event>
<event>
 4   1200 +8.6263000e+09 3.09707300e-02 7.81665300e-03            nan
       50 -1    0    0    0    0 +3.6117033283e-02 -4.9883784022e-02 +2.2141237291e+01 2.2141323505e+01 4.9935713700e-03 0.0000e+00 0.0000e+00
       11 -1    0    0    0    0 +2.9202393997e-18 -4.0333487627e-18 +1.7902277019e-15 5.1100000000e-04 5.1099893000e-04 0.0000e+00 1.0000e+00
       50  1    1    2    0    0 +2.4148942341e-02 -7.6469497109e-02 +2.1185759318e+01 2.1185911676e+01 4.9935713700e-03 0.0000e+00 0.0000e+00
       11  1    1    2    0    0 +1.1968090942e-02 +2.6585713087e-02 +9.5547797325e-01 9.5592282838e-01 5.1099893000e-04 0.0000e+00 1.0000e+00
<vert_displacement>
461.87856650905138
</vert_displacement>
</event>
<event>
 4   1200 +8.6263000e+09 9.08642100e-03 7.81665300e-03            nan
       50 -1    0    0    0    0 +4.0160651476e-02 -1.6848265336e-02 +1.8711748075e+01 1.8711799425e+01 4.9935713700e-03 0.0000e+00 0.0000e+00
       11 -1    0    0    0    0 +3.3955513712e-18 -1.4245075307e-18 +1.5820635249e-15 5.1100000000e-04 5.1099893000e-04 0.0000e+00 1.0000e+00
       50  1    1    2    0    0 +4.6727789319e-02 -1.3206972872e-02 +1.8655177609e+01 1.8655241474e+01 4.9935713700e-03 0.0000e+00 0.0000e+00
       11  1    1    2    0    0 -6.5671378428e-03 -3.6412924642e-03 +5.6570466526e-02 5.7068950517e-02 5.1099893000e-04 0.0000e+00 1.0000e+00
<vert_displacement>
325.14856909211301
</vert_displacement>
</event>
<event>
 4   1200 +8.6263000e+09 1.28265400e-02 7.81665300e-03            nan
       50 -1    0    0    0    0 +5.0552483266e-02 +4.2104720205e-03 +1.7363438173e+01 1.7363512991e+01 4.9935713700e-03 0.0000e+00 0.0000e+00
       11 -1    0    0    0    0 -2.4242444440e-18 -2.0191319482e-19 -8.3266371498e-16 5.1100000000e-04 5.1099893000e-04 0.0000e+00 1.0000e+00
       50  1    1    2    0    0 +4.2379016260e-02 +1.3074851480e-02 +1.7225782351e+01 1.7225840168e+01 4.9935713700e-03 0.0000e+00 0.0000e+00
       11  1    1    2    0    0 +8.1734670055e-03 -8.8643794592e-03 +1.3765582140e-01 1.3818382348e-01 5.1099893000e-04 0.0000e+00 1.0000e+00
<vert_displacement>
87.159707575495545
</vert_displacement>
</event>
<event>
 4   1200 +8.6263000e+09 1.07194600e-02 7.81665300e-03            nan
       50 -1    0    0    0    0 +1.8922669884e-03 +8.3063669998e-03 +2.3423618569e+01 2.3423620650e+01 4.9935713700e-03 0.0000e+00 0.0000e+00
       11 -1    0    0    0    0 +1.7152999323e-19 +7.5295456931e-19 +2.1233013942e-15 5.1100000000e-04 5.1099893000e-04 0.0000e+00 1.0000e+00
       50  1    1    2    0    0 -2.8923253787e-03 +1.6469352587e-02 +2.3335246156e+01 2.3335252681e+01 4.9935713700e-03 0.0000e+00 0.0000e+00
       11  1    1    2    0    0 +4.7845923671e-03 -8.1629855873e-03 +8.8372412628e-02 8.8878968780e-02 5.1099893000e-04 0.0000e+00 1.0000e+00
<vert_displacement>
96.073082483134726
</vert_displacement>
</event>
<event>
 4   1200 +8.6263000e+09 1.38787300e-02 7.81665300e-03            nan
       50 -1    0    0    0    0 -4.8687631716e-02 +3.5033825790e-02 +2.1588480183e+01 2.1588564088e+01 4.9935713700e-03 0.0000e+00 0.0000e+00
       11 -1    0    0    0    0 +1.1580221628e-18 -8.3327007867e-19 -5.1347616696e-16 5.1100000000e-04 5.1099893000e-04 0.0000e+00 1.0000e+00
       50  1    1    2    0    0 -3.9420357551e-02 +4.4176846214e-02 +2.1423140198e+01 2.1423222597e+01 4.9935713700e-03 0.0000e+00 0.0000e+00
       11  1    1    2    0    0 -9.2672741653e-03 -9.1430204237e-03 +1.6533998485e-01 1.6585249139e-01 5.1099893000e-04 0.0000e+00 1.0000e+00
<vert_displacement>
34.267054887548476
</vert_displacement>
</event>
<event>
 4   1200 +8.6263000e+09 1.42342200e-02 7.81665300e-03            nan
       50 -1    0    0    0    0 +6.9551540958e-03 -2.7615269949e-03 +3.4495835227e+00 3.4495952539e+00 4.9935713700e-03 0.0000e+00 0.0000e+00
       11 -1    0    0    0    0 -4.4769196030e-19 +1.7775500251e-19 -2.2204408245e-16 5.1100000000e-04 5.1099893000e-04 0.0000e+00 1.0000e+00
       50  1    1    2    0    0 +1.8586058114e-02 +3.1859488868e-03 +3.2658313586e+00 3.2658896170e+00 4.9935713700e-03 0.0000e+00 0.0000e+00
       11  1    1    2    0    0 -1.1630904018e-02 -5.9474758817e-03 +1.8375216405e-01 1.8421663690e-01 5.1099893000e-04 0.0000e+00 1.0000e+00
<vert_displacement>
195.27519994303384
</vert_displacement>
</event>
<event>
 4   1200 +8.6263000e+09 1.10295700e-02 7.81665300e-03            nan
       50 -1    0    0    0    0 +1.4080177444e-02 -4.5458059785e-02 +2.4579394308e+01 2.4579440884e+01 4.9935713700e-03 0.0000e+00 0.0000e+00
       11 -1    0    0    0    0 -7.7908071799e-19 +2.5152735466e-18 -1.3600206561e-15 5.1100000000e-04 5.1099893000e-04 0.0000e+00 1.0000e+00
       50  1    1    2    0    0 +1.6078767282e-02 -5.4900069507e-02 +2.4484372334e+01 2.4484439672e+01 4.9935713700e-03 0.0000e+00 0.0000e+00
       11  1    1    2    0    0 -1.9985898384e-03 +9.4420097215e-03 +9.5021974147e-02 9.5512211783e-02 5.1099893000e-04 0.0000e+00 1.0000e+00
<vert_displacement>
213.60322635157840
</vert_displacement>
</event>
<event>
 4   1200 +8.6263000e+09 8.05218000e-03 7.81665300e-03            nan
       50 -1    0    0    0    0 -6.8497105060e-03 +1.1602718080e-02 +4.7498843646e+00 4.7499060996e+00 4.9935713700e-03 0.0000e+00 0.0000e+00
       11 -1    0    0    0    0 +5.8037095999e-19 -9.8308981451e-19 -4.0245422724e-16 5.1100000000e-04 5.1099893000e-04 0.0000e+00 1.0000e+00
       50  1    1    2    0    0 -8.0942792006e-03 +5.3252602409e-03 +4.7105225532e+00 4.7105351645e+00 4.9935713700e-03 0.0000e+00 0.0000e+00
       11  1    1    2    0    0 +1.2445686945e-03 +6.2774578394e-03 +3.9361811435e-02 3.9881935103e-02 5.1099893000e-04 0.0000e+00 1.0000e+00
<vert_displacement>
49.083743280398721
</vert_displacement>
</event>
<event>
 4   1200 +8.6263000e+09 6.51761100e-03 7.81665300e-03            nan
       50 -1    0    0    0    0 -1.7397494050e-02 -1.0711075460e-02 +6.1742415516e+00 6.1742773726e+00 4.9935713700e-03 0.0000e+00 0.0000e+00
       11 -1    0    0    0    0 +5.8655967787e-20 +3.6112585830e-20 -2.0816567749e-17 5.1100000000e-04 5.1099893000e-04 0.0000e+00 1.0000e+00
       50  1    1    2    0    0 -1.7637125923e-02 -6.5026423812e-03 +6.1570326218e+00 6.1570633417e+00 4.9935713700e-03 0.0000e+00 0.0000e+00
       11  1    1    2    0    0 +2.3963187264e-04 -4.2084330785e-03 +1.7208929825e-02 1.7725030834e-02 5.1099893000e-04 0.0000e+00 1.0000e+00
<vert_displacement>
156.50949628013478
</vert_displacement>
</event>
<event>
 4   1200 +8.6263000e+09 2.19943800e-02 7.81665300e-03            nan
       50 -1    0    0    0    0 +7.3887724703e-03 -1.0611134480e-02 +5.8232808650e+00 5.8232973613e+00 4.9935713700e-03 0.0000e+00 0.0000e+00
       11 -1    0    0    0    0 +9.1564488085e-19 -1.3149722779e-18 +7.2164318704e-16 5.1100000000e-04 5.1099893000e-04 0.0000e+00 1.0000e+00
       50  1    1    2    0    0 +3.8675098998e-03 -3.0940333680e-02 +5.3327876778e+00 5.3328811738e+00 4.9935713700e-03 0.0000e+00 0.0000e+00
       11  1    1    2    0    0 +3.5212625705e-03 +2.0329199200e-02 +4.9049318719e-01 4.9092718750e-01 5.1099893000e-04 0.0000e+00 1.0000e+00
<vert_displacement>
20.633465252315364
</vert_displacement>
</event>
<event>
 4   1200 +8.6263000e+09 1.05305800e-02 7.81665300e-03            nan
       50 -1    0    0    0    0 +6.2867685264e-02 +4.3612402345e-02 +2.0314271752e+01 2.0314416461e+01 4.9935713700e-03 0.0000e+00 0.0000e+00
       11 -1    0    0    0    0 +4.2948042545e-19 +2.9793801116e-19 +1.3877689369e-16 5.1100000000e-04 5.1099893000e-04 0.0000e+00 1.0000e+00
       50  1    1    2    0    0 +7.1848948702e-02 +4.4158986213e-02 +2.0229781567e+01 2.0229957970e+01 4.9935713700e-03 0.0000e+00 0.0000e+00
       11  1    1    2    0    0 -8.9812634377e-03 -5.4658386753e-04 +8.4490185214e-02 8.4969490785e-02 5.1099893000e-04 0.0000e+00 1.0000e+00
<vert_displacement>
473.03308803889075
</vert_displacement>
</event>
<event>
 4   1200 +8.6263000e+09 5.53833100e-02 7.81665300e-03            nan
       50 -1    0    0    0    0 +7.3223696904e-02 +3.9777423268e-02 +2.6962695317e+01 2.6962824549e+01 4.9935713700e-03 0.0000e+00 0.0000e+00
       11 -1    0    0    0    0 -1.4321552945e-17 -7.7799195810e-18 -5.2735341815e-15 5.1100000000e-04 5.1099893000e-04 0.0000e+00 1.0000e+00
       50  1    1    2    0    0 +1.1719528645e-01 +2.0284532127e-02 +2.3554474830e+01 2.3554775645e+01 4.9935713700e-03 0.0000e+00 0.0000e+00
       11  1    1    2    0    0 -4.3971589547e-02 +1.9492891141e-02 +3.4082204866e+00 3.4085599041e+00 5.1099893000e-04 0.0000e+00 1.0000e+00
<vert_displacement>
443.88556875246667
</vert_displacement>
</event>
<event>
 4   1200 +8.6263000e+09 1.96710700e-02 7.81665300e-03            nan
       50 -1    0    0    0    0 +3.1319673251e-03 +3.6229719903e-03 +2.5171271663e+00 2.5171366754e+00 4.9935713700e-03 0.0000e+00 0.0000e+00
       11 -1    0    0    0    0 -2.0289408636e-19 -2.3470219053e-19 -1.6306371161e-16 5.1100000000e-04 5.1099893000e-04 0.0000e+00 1.0000e+00
       50  1    1    2    0    0 +2.1413988745e-02 +1.7136088248e-04 +2.0894625021e+00 2.0895782042e+00 4.9935713700e-03 0.0000e+00 0.0000e+00
       11  1    1    2    0    0 -1.8282021420e-02 +3.4516111078e-03 +4.2766466427e-01 4.2806947113e-01 5.1099893000e-04 0.0000e+00 1.0000e+00
<vert_displacement>
202.31852790687881
</vert_displacement>
</event>
<event>
 4   1200 +8.6263000e+09 1.46738400e-02 7.81665300e-03            nan
       50 -1    0    0    0    0 +3.2330456842e-03 -4.5726526685e-03 +9.5194411491e+00 9.5194441061e+00 4.9935713700e-03 0.0000e+00 0.0000e+00
       11 -1    0    0    0    0 -1.1783127158e-19 +1.6665445870e-19 -3.4694463516e-16 5.1100000000e-04 5.1099893000e-04 0.0000e+00 1.0000e+00
       50  1    1    2    0    0 +1.0588099755e-02 +7.1520240518e-03 +9.3293407268e+00 9.3293508130e+00 4.9935713700e-03 0.0000e+00 0.0000e+00
       11  1    1    2    0    0 -7.3550540703e-03 -1.1724676720e-02 +1.9010042231e-01 1.9060429310e-01 5.1099893000e-04 0.0000e+00 1.0000e+00
<vert_displacement>
349.52715127014727
</vert_displacement>
</event>
<event>
 4   1200 +8.6263000e+09 5.30852900e-02 7.81665300e-03            nan
       50 -1    0    0    0    0 -4.6373980531e-02 -3.6341100356e-02 +2.9440557834e+01 2.9440617210e+01 4.9935713700e-03 0.0000e+00 0.0000e+00
       11 -1    0    0    0    0 -5.1152112168e-18 -4.0085496661e-18 +3.2473958443e-15 5.1100000000e-04 5.1099893000e-04 0.0000e+00 1.0000e+00
       50  1    1    2    0    0 -6.5389572555e-02 -7.9755602046e-02 +2.6391391700e+01 2.6391593691e+01 4.9935713700e-03 0.0000e+00 0.0000e+00
       11  1    1    2    0    0 +1.9015592025e-02 +4.3414501690e-02 +3.0491661338e+00 3.0495345193e+00 5.1099893000e-04 0.0000e+00 1.0000e+00
<vert_displacement>
39.390564610892291
</vert_displacement>
</event>
<event>
 4   1200 +8.6263000e+09 3.34427800e-02 7.81665300e-03            nan
       50 -1    0    0    0    0 +1.4096917172e-02 +7.9669030269e-03 +6.0133221983e+00 6.0133460728e+00 4.9935713700e-03 0.0000e+00 0.0000e+00
       11 -1    0    0    0    0 -2.4399987587e-19 -1.3789705408e-19 -1.0408303121e-16 5.1100000000e-04 5.1099893000e-04 0.0000e+00 -1.0000e+00
       50  1    1    2    0    0 +3.5311382090e-02 +2.8344591280e-02 +4.6183273760e+00 4.6185520455e+00 4.9935713700e-03 0.0000e+00 0.0000e+00
       11  1    1    2    0    0 -2.1214464918e-02 -2.0377688253e-02 +1.3949948223e+00 1.3953050273e+00 5.1099893000e-04 0.0000e+00 -1.0000e+00
<vert_displacement>
116.00160931359872
</vert_displacement>
</event>
<event>
 4   1200 +8.6263000e+09 1.17862400e-02 7.81665300e-03            nan
       50 -1    0    0    0    0 +1.1323425310e-01 +6.9955652919e-02 +3.2595069916e+01 3.2595342053e+01 4.9935713700e-03 0.0000e+00 0.0000e+00
       11 -1    0    0    0    0 -8.7743289655e-18 -5.4207441202e-18 -2.5257363232e-15 5.1100000000e-04 5.1099893000e-04 0.0000e+00 1.0000e+00
       50  1    1    2    0    0 +1.0564437905e-01 +7.7597334416e-02 +3.2483166570e+01 3.2483431430e+01 4.9935713700e-03 0.0000e+00 0.0000e+00
       11  1    1    2    0    0 +7.5898740493e-03 -7.6416814975e-03 +1.1190334555e-01 1.1242162314e-01 5.1099893000e-04 0.0000e+00 1.0000e+00
<vert_displacement>
89.016633777504211
</vert_displacement>
</event>
<event>
 4   1200 +8.6263000e+09 1.16778600e-02 7.81665300e-03            nan
       50 -1    0    0    0    0 -1.9206293156e-02 +9.9487496923e-03 +1.0774421703e+01 1.0774444572e+01 4.9935713700e-03 0.0000e+00 0.0000e+00
       11 -1    0    0    0    0 -2.0532746436e-18 +1.0635844883e-18 +1.1518540669e-15 5.1100000000e-04 5.1099893000e-04 0.0000e+00 1.0000e+00
       50  1    1    2    0    0 -1.4323927677e-02 +1.9306314229e-02 +1.0664249527e+01 1.0664277792e+01 4.9935713700e-03 0.0000e+00 0.0000e+00
       11  1    1    2    0    0 -4.8823654796e-03 -9.3575645368e-03 +1.1017217623e-01 1.1067778025e-01 5.1099893000e-04 0.0000e+00 1.0000e+00
<vert_displacement>
30.664557915860616
</vert_displacement>
</event>
<event>
 4   1200 +8.6263000e+09 2.83621700e-02 7.81665300e-03            nan
       50 -1    0    0    0    0 +2.8911392969e-02 +8.3057046417e-03 +1.2423404531e+01 1.2423441952e+01 4.9935713700e-03 0.0000e+00 0.0000e+00
       11 -1    0    0    0    0 +1.6632387271e-18 +4.7781750365e-19 +7.1470397706e-16 5.1100000000e-04 5.1099893000e-04 0.0000e+00 1.0000e+00
       50  1    1    2    0    0 +2.1484566026e-02 +3.5126467393e-02 +1.1606906253e+01 1.1606980363e+01 4.9935713700e-03 0.0000e+00 0.0000e+00
       11  1    1    2    0    0 +7.4268269436e-03 -2.6820762752e-02 +8.1649827784e-01 8.1697258822e-01 5.1099893000e-04 0.0000e+00 1.0000e+00
<vert_displacement>
301.25461909652398
</vert_displacement>
</event>
<event>
 4   1200 +8.6263000e+09 2.37458100e-02 7.81665300e-03            nan
       50 -1    0    0    0    0 +6.6109807384e-03 +2.1029183061e-04 +4.8931209028e+00 4.8931279213e+00 4.9935713700e-03 0.0000e+00 0.0000e+00
       11 -1    0    0    0    0 -2.4374916880e-19 -7.7535332418e-21 -1.8041107667e-16 5.1100000000e-04 5.1099893000e-04 0.0000e+00 1.0000e+00
       50  1    1    2    0    0 -1.5682760464e-02 +8.9881163062e-03 +4.2914010710e+00 4.2914420447e+00 4.9935713700e-03 0.0000e+00 0.0000e+00
       11  1    1    2    0    0 +2.2293741202e-02 -8.7778244756e-03 +6.0171983181e-01 6.0219687662e-01 5.1099893000e-04 0.0000e+00 1.0000e+00
<vert_displacement>
345.70871585958082
</vert_displacement>
</event>
<event>
 4   1200 +8.6263000e+09 3.86904600e-02 7.81665300e-03            nan
       50 -1    0    0    0    0 -3.8805665986e-02 -4.3038322435e-02 +2.1901947184e+01 2.1902024417e+01 4.9935713700e-03 0.0000e+00 0.0000e+00
       11 -1    0    0    0    0 +2.3850795615e-18 +2.6452277160e-18 -1.3461407054e-15 5.1100000000e-04 5.1099893000e-04 0.0000e+00 1.0000e+00
       50  1    1    2    0    0 -5.8547224642e-02 -7.1077269099e-02 +2.0351646161e+01 2.0351855104e+01 4.9935713700e-03 0.0000e+00 0.0000e+00
       11  1    1    2    0    0 +1.9741558656e-02 +2.8038946664e-02 +1.5503010226e+00 1.5506803131e+00 5.1099893000e-04 0.0000e+00 1.0000e+00
<vert_displacement>
276.44877043696596
</vert_displacement>
</event>
<event>
 4   1200 +8.6263000e+09 1.20677200e-02 7.81665300e-03            nan
       50 -1    0    0    0    0 +5.2212035989e-02 +2.1868505550e-02 +3.8593364715e+01 3.8593406552e+01 4.9935713700e-03 0.0000e+00 0.0000e+00
       11 -1    0    0    0    0 -1.8962654596e-18 -7.9423242060e-19 -1.4016550609e-15 5.1100000000e-04 5.1099893000e-04 0.0000e+00 1.0000e+00
       50  1    1    2    0    0 +6.2369817216e-02 +1.8028864878e-02 +3.8474891668e+01 3.8474946768e+01 4.9935713700e-03 0.0000e+00 0.0000e+00
       11  1    1    2    0    0 -1.0157781227e-02 +3.8396406720e-03 +1.1847304781e-01 1.1897078439e-01 5.1099893000e-04 0.0000e+00 1.0000e+00
<vert_displacement>
329.85812144834949
</vert_displacement>
</event>
<event>
 4   1200 +8.6263000e+09 1.08087600e-02 7.81665300e-03            nan
       50 -1    0    0    0    0 -3.8731166400e-03 +2.9696484854e-03 +1.2440005199e+00 1.2440201160e+00 4.9935713700e-03 0.0000e+00 0.0000e+00
       11 -1    0    0    0    0 +1.1882001655e-19 -9.1103293546e-20 -3.8163622764e-17 5.1100000000e-04 5.1099893000e-04 0.0000e+00 1.0000e+00
       50  1    1    2    0    0 +5.7471770551e-03 +4.9963232284e-03 +1.1462357667e+00 1.1462719406e+00 4.9935713700e-03 0.0000e+00 0.0000e+00
       11  1    1    2    0    0 -9.6202936951e-03 -2.0266747430e-03 +9.7764753196e-02 9.8259175392e-02 5.1099893000e-04 0.0000e+00 1.0000e+00
<vert_displacement>
380.41502940438636
</vert_displacement>
</event>
<event>
 4   1200 +8.6263000e+09 1.51822400e-02 7.81665300e-03            nan
       50 -1    0    0    0    0 +2.1595384575e-03 +7.1214294618e-03 +3.3179384781e+00 3.3179505811e+00 4.9935713700e-03 0.0000e+00 0.0000e+00
       11 -1    0    0    0    0 +1.3548868353e-19 +4.4679598056e-19 +2.0816629354e-16 5.1100000000e-04 5.1099893000e-04 0.0000e+00 1.0000e+00
       50  1    1    2    0    0 -8.1653508171e-03 -3.4318043826e-03 +3.1027327132e+00 3.1027493736e+00 4.9935713700e-03 0.0000e+00 0.0000e+00
       11  1    1    2    0    0 +1.0324889275e-02 +1.0553233844e-02 +2.1520576487e-01 2.1571220744e-01 5.1099893000e-04 0.0000e+00 1.0000e+00
<vert_displacement>
125.92165551425636
</vert_displacement>
</event>
<event>
 4   1200 +8.6263000e+09 3.34051600e-02 7.81665300e-03            nan
       50 -1    0    0    0    0 -2.3299507107e-02 -3.6547536782e-03 +7.5323283507e+00 7.5323669283e+00 4.9935713700e-03 0.0000e+00 0.0000e+00
       11 -1    0    0    0    0 +2.8546787976e-18 +4.4778405774e-19 -9.2286836545e-16 5.1100000000e-04 5.1099893000e-04 0.0000e+00 1.0000e+00
       50  1    1    2    0    0 -4.1402656622e-02 +2.1526908831e-02 +6.2435089645e+00 6.2436853471e+00 4.9935713700e-03 0.0000e+00 0.0000e+00
       11  1    1    2    0    0 +1.8103149515e-02 -2.5181662509e-02 +1.2888193862e+00 1.2891925812e+00 5.1099893000e-04 0.0000e+00 1.0000e+00
<vert_displacement>
67.180389157064496
</vert_displacement>
</event>
<event>
 4   1200 +8.6263000e+09 1.56142200e-02 7.81665300e-03            nan
       50 -1    0    0    0    0 +4.3573812595e-02 +1.9888236881e-02 +1.4374858496e+01 1.4374939163e+01 4.9935713700e-03 0.0000e+00 0.0000e+00
       11 -1    0    0    0    0 +2.3136758016e-19 +1.0560226353e-19 +7.6327409225e-17 5.1100000000e-04 5.1099893000e-04 0.0000e+00 1.0000e+00
       50  1    1    2    0    0 +2.8632576821e-02 +1.5728826685e-02 +1.4157448841e+01 1.4157487413e+01 4.9935713700e-03 0.0000e+00 0.0000e+00
       11  1    1    2    0    0 +1.4941235773e-02 +4.1594101962e-03 +2.1740965512e-01 2.1796275021e-01 5.1099893000e-04 0.0000e+00 1.0000e+00
<vert_displacement>
257.21239778622544
</vert_displacement>
</event>
<event>
 4   1200 +8.6263000e+09 9.25075400e-03 7.81665300e-03            nan
       50 -1    0    0    0    0 -8.8240322865e-03 -5.9302391206e-03 +5.7270312659e+00 5.7270433111e+00 4.9935713700e-03 0.0000e+00 0.0000e+00
       11 -1    0    0    0    0 +4.8110464170e-19 +3.2332900364e-19 -3.1224968764e-16 5.1100000000e-04 5.1099893000e-04 0.0000e+00 1.0000e+00
       50  1    1    2    0    0 -6.4952966427e-03 +1.5910414888e-03 +5.6670712547e+00 5.6670774003e+00 4.9935713700e-03 0.0000e+00 0.0000e+00
       11  1    1    2    0    0 -2.3287356438e-03 -7.5212806094e-03 +5.9960011223e-02 6.0476910780e-02 5.1099893000e-04 0.0000e+00 1.0000e+00
<vert_displacement>
407.99676147994171
</vert_displacement>
</event>
<event>
 4   1200 +8.6263000e+09 5.26470100e-03 7.81665300e-03            nan
       50 -1    0    0    0    0 +1.4904747663e-02 -1.2663599349e-02 +9.6145474622e+00 9.6145686516e+00 4.9935713700e-03 0.0000e+00 0.0000e+00
       11 -1    0    0    0    0 -7.5297952803e-19 +6.3975796681e-19 -4.8572156831e-16 5.1100000000e-04 5.1099893000e-04 0.0000e+00 1.0000e+00
       50  1    1    2    0    0 +1.3345824312e-02 -1.3263515641e-02 +9.6118267193e+00 9.6118464329e+00 4.9935713700e-03 0.0000e+00 0.0000e+00
       11  1    1    2    0    0 +1.5589233509e-03 +5.9991629222e-04 +2.7207428926e-03 3.2332187315e-03 5.1099893000e-04 0.0000e+00 1.0000e+00
<vert_displacement>
161.86139694312581
</vert_displacement>
</event>
<event>
 4   1200 +8.6263000e+09 1.12053500e-02 7.81665300e-03            nan
       50 -1    0    0    0    0 -1.7067730391e-02 -3.5295532815e-02 +1.8422448633e+01 1.8422491027e+01 4.9935713700e-03 0.0000e+00 0.0000e+00
       11 -1    0    0    0    0 +1.3885816907e-18 +2.8715435216e-18 -1.4987976892e-15 5.1100000000e-04 5.1099893000e-04 0.0000e+00 1.0000e+00
       50  1    1    2    0    0 -1.1859991562e-02 -2.6477429156e-02 +1.8323476644e+01 1.8323500293e+01 4.9935713700e-03 0.0000e+00 0.0000e+00
       11  1    1    2    0    0 -5.2077388282e-03 -8.8181036589e-03 +9.8971988616e-02 9.9501734389e-02 5.1099893000e-04 0.0000e+00 1.0000e+00
<vert_displacement>
332.06088039974441
</vert_displacement>
</event>
<event>
 4   1200 +8.6263000e+09 7.21730800e-03 7.81665300e-03            nan
       50 -1    0    0    0    0 +9.3054751410e-03 -3.9240700506e-04 +5.2128759871e+00 5.2128866991e+00 4.9935713700e-03 0.0000e+00 0.0000e+00
       11 -1    0    0    0    0 +7.4319360555e-20 -3.1340084468e-21 +4.1633296972e-17 5.1100000000e-04 5.1099893000e-04 0.0000e+00 1.0000e+00
       50  1    1    2    0    0 +4.4972639754e-03 +1.7288091621e-03 +5.1861753330e+00 5.1861799751e+00 4.9935713700e-03 0.0000e+00 0.0000e+00
       11  1    1    2    0    0 +4.8082111656e-03 -2.1212161672e-03 +2.6700654057e-02 2.7217723998e-02 5.1099893000e-04 0.0000e+00 1.0000e+00
<vert_displacement>
232.76963729691835
</vert_displacement>
</event>
<event>
 4   1200 +8.6263000e+09 9.98396000e-03 7.81665300e-03            nan
       50 -1    0    0    0    0 +2.3494714641e-02 +4.0998844168e-02 +1.8010129010e+01 1.8010191692e+01 4.9935713700e-03 0.0000e+00 0.0000e+00
       11 -1    0    0    0    0 -3.9828576035e-18 -6.9501826572e-18 -3.0531028091e-15 5.1100000000e-04 5.1099893000e-04 0.0000e+00 1.0000e+00
       50  1    1    2    0    0 +2.1369108239e-02 +3.2427915678e-02 +1.7936714394e+01 1.7936757131e+01 4.9935713700e-03 0.0000e+00 0.0000e+00
       11  1    1    2    0    0 +2.1256064018e-03 +8.5709284900e-03 +7.3414616499e-02 7.3945561417e-02 5.1099893000e-04 0.0000e+00 1.0000e+00
<vert_displacement>
338.44673896236708
</vert_displacement>
</event>
<event>
 4   1200 +8.6263000e+09 1.76633600e-02 7.81665300e-03            nan
       50 -1    0    0    0    0 +8.6075627554e-03 +1.4379034115e-02 +6.8680628583e+00 6.8680851194e+00 4.9935713700e-03 0.0000e+00 0.0000e+00
       11 -1    0    0    0    0 -9.5659383114e-19 -1.5980011674e-18 -7.6327605720e-16 5.1100000000e-04 5.1099893000e-04 0.0000e+00 1.0000e+00
       50  1    1    2    0    0 +1.5123961849e-02 -1.7165464705e-03 +6.5746019978e+00 6.5746215135e+00 4.9935713700e-03 0.0000e+00 0.0000e+00
       11  1    1    2    0    0 -6.5163990933e-03 +1.6095580585e-02 +2.9346086044e-01 2.9397460588e-01 5.1099893000e-04 0.0000e+00 1.0000e+00
<vert_displacement>
444.83457309609270
</vert_displacement>
</event>
<event>
 4   1200 +8.6263000e+09 3.01793900e-02 7.81665300e-03            nan
       50 -1    0    0    0    0 +1.6394520095e-02 +1.7583299873e-02 +7.4775438197e+00 7.4775841328e+00 4.9935713700e-03 0.0000e+00 0.0000e+00
       11 -1    0    0    0    0 -2.4341521837e-19 -2.6106545074e-19 -1.1102172867e-16 5.1100000000e-04 5.1099893000e-04 0.0000e+00 1.0000e+00
       50  1    1    2    0    0 +5.7564506434e-03 -1.3312212098e-02 +6.4762472586e+00 6.4762654240e+00 4.9935713700e-03 0.0000e+00 0.0000e+00
       11  1    1    2    0    0 +1.0638069452e-02 +3.0895511971e-02 +1.0012965610e+00 1.0018297088e+00 5.1099893000e-04 0.0000e+00 1.0000e+00
<vert_displacement>
84.931253746077502
</vert_displacement>
</event>
<event>
 4   1200 +8.6263000e+09 2.00316300e-02 7.81665300e-03            nan
       50 -1    0    0    0    0 -2.6813207250e-02 +1.2733165981e-02 +1.0765315133e+01 1.0765357213e+01 4.9935713700e-03 0.0000e+00 0.0000e+00
       11 -1    0    0    0    0 -2.0739193321e-19 +9.8487133001e-20 +8.3266410327e-17 5.1100000000e-04 5.1099893000e-04 0.0000e+00 1.0000e+00
       50  1    1    2    0    0 -4.3890059287e-02 +5.1173576428e-03 +1.0383460874e+01 1.0383556095e+01 4.9935713700e-03 0.0000e+00 0.0000e+00
       11  1    1    2    0    0 +1.7076852038e-02 +7.6158083377e-03 +3.8185425908e-01 3.8231211818e-01 5.1099893000e-04 0.0000e+00 1.0000e+00
<vert_displacement>
467.45355795757308
</vert_displacement>
</event>
<event>
 4   1200 +8.6263000e+09 1.73981000e-02 7.81665300e-03            nan
       50 -1    0    0    0    0 -6.7521158300e-03 +1.8957926870e-02 +1.8443779717e+01 1.8443791372e+01 4.9935713700e-03 0.0000e+00 0.0000e+00
       11 -1    0    0    0    0 -9.1449734015e-20 +2.5676357061e-19 +2.4980003184e-16 5.1100000000e-04 5.1099893000e-04 0.0000e+00 1.0000e+00
       50  1    1    2    0    0 -1.4121872463e-02 +3.7764789276e-03 +1.8167872807e+01 1.8167879374e+01 4.9935713700e-03 0.0000e+00 0.0000e+00
       11  1    1    2    0    0 +7.3697566332e-03 +1.5181447942e-02 +2.7590691014e-01 2.7642299807e-01 5.1099893000e-04 0.0000e+00 1.0000e+00
<vert_displacement>
18.043688994865157
</vert_displacement>
</event>
<event>
 4   1200 +8.6263000e+09 1.50147400e-02 7.81665300e-03            nan
       50 -1    0    0    0    0 +1.9806951952e-04 -2.7817358950e-03 +4.3750269189e+00 4.3750306575e+00 4.9935713700e-03 0.0000e+00 0.0000e+00
       11 -1    0    0    0    0 -2.6387993202e-20 +3.7059931313e-19 -5.8286696951e-16 5.1100000000e-04 5.1099893000e-04 0.0000e+00 1.0000e+00
       50  1    1    2    0    0 +5.9929545578e-03 -1.5566575915e-02 +4.1690553037e+00 4.1690916630e+00 4.9935713700e-03 0.0000e+00 0.0000e+00
       11  1    1    2    0    0 -5.7948850383e-03 +1.2784840020e-02 +2.0597161525e-01 2.0644999452e-01 5.1099893000e-04 0.0000e+00 1.0000e+00
<vert_displacement>
328.20508591349301
</vert_displacement>
</event>
<event>
 4   1200 +8.6263000e+09 2.42522400e-02 7.81665300e-03            nan
       50 -1    0    0    0    0 +4.7805509614e-03 +9.9589833477e-04 +4.1990616144e+00 4.1990674230e+00 4.9935713700e-03 0.0000e+00 0.0000e+00
       11 -1    0    0    0    0 -1.5009604865e-19 -3.1268447113e-20 -1.3183889503e-16 5.1100000000e-04 5.1099893000e-04 0.0000e+00 1.0000e+00
       50  1    1    2    0    0 -1.8022980793e-02 +9.5935972188e-03 +3.5456327530e+00 3.5456950546e+00 4.9935713700e-03 0.0000e+00 0.0000e+00
       11  1    1    2    0    0 +2.2803531754e-02 -8.5976988841e-03 +6.5342886138e-01 6.5388336842e-01 5.1099893000e-04 0.0000e+00 1.0000e+00
<vert_displacement>
308.11294886071488
</vert_displacement>
</event>
<event>
 4   1200 +8.6263000e+09 8.85074600e-03 7.81665300e-03            nan
       50 -1    0    0    0    0 +2.3295471612e-02 +9.8028965069e-04 +1.8453973617e+01 1.8453989022e+01 4.9935713700e-03 0.0000e+00 0.0000e+00
       11 -1    0    0    0    0 +9.4600899901e-19 +3.9808716760e-20 +7.4939994347e-16 5.1100000000e-04 5.1099893000e-04 0.0000e+00 1.0000e+00
       50  1    1    2    0    0 +2.9068485424e-02 -3.4161356909e-03 +1.8401565639e+01 1.8401589593e+01 4.9935713700e-03 0.0000e+00 0.0000e+00
       11  1    1    2    0    0 -5.7730138116e-03 +4.3964253415e-03 +5.2407978143e-02 5.2910429380e-02 5.1099893000e-04 0.0000e+00 1.0000e+00
<vert_displacement>
398.97691266523060
</vert_displacement>
</event>
<event>
 4   1200 +8.6263000e+09 1.75033500e-02 7.81665300e-03            nan
       50 -1    0    0    0    0 -3.0122089131e-02 -3.8635132465e-02 +1.4865567263e+01 1.4865648825e+01 4.9935713700e-03 0.0000e+00 0.0000e+00
       11 -1    0    0    0    0 +2.9526419551e-19 +3.7871115965e-19 -1.4571598071e-16 5.1100000000e-04 5.1099893000e-04 0.0000e+00 1.0000e+00
       50  1    1    2    0    0 -1.5492028616e-02 -2.8756381071e-02 +1.4584929621e+01 1.4584967052e+01 4.9935713700e-03 0.0000e+00 0.0000e+00
       11  1    1    2    0    0 -1.4630060514e-02 -9.8787513949e-03 +2.8063764222e-01 2.8119277329e-01 5.1099893000e-04 0.0000e+00 1.0000e+00
<vert_displacement>
222.83997146224965
</vert_displacement>
</event>
<event>
 4   1200 +8.6263000e+09 6.36797300e-02 7.81665300e-03            nan
       50 -1    0    0    0    0 +5.2430898102e-02 +5.5790211666e-03 +1.6799615275e+01 1.6799698761e+01 4.9935713700e-03 0.0000e+00 0.0000e+00
       11 -1    0    0    0    0 +1.4726006288e-18 +1.5669520027e-19 +4.7184246149e-16 5.1100000000e-04 5.1099893000e-04 0.0000e+00 -1.0000e+00
       50  1    1    2    0    0 +3.4625055860e-02 +6.3854936327e-02 +6.3624289325e+00 6.3628455273e+00 4.9935713700e-03 0.0000e+00 0.0000e+00
       11  1    1    2    0    0 +1.7805842242e-02 -5.8275915160e-02 +1.0437186343e+01 1.0437364234e+01 5.1099893000e-04 0.0000e+00 -1.0000e+00
<vert_displacement>
291.26730967894008
</vert_displacement>
</event>
<event>
 4   1200 +8.6263000e+09 3.85488700e-02 7.81665300e-03            nan
       50 -1    0    0    0    0 -3.2432805864e-02 -4.1433749661e-02 +2.6275792623e+01 2.6275845781e+01 4.9935713700e-03 0.0000e+00 0.0000e+00
       11 -1    0    0    0    0 -3.7342600846e-18 -4.7706139938e-18 +3.0253516761e-15 5.1100000000e-04 5.1099893000e-04 0.0000e+00 1.0000e+00
       50  1    1    2    0    0 -2.9351603530e-02 -8.3614823911e-04 +2.4758498213e+01 2.4758516129e+01 4.9935713700e-03 0.0000e+00 0.0000e+00
       11  1    1    2    0    0 -3.0812023334e-03 -4.0597601422e-02 +1.5172944099e+00 1.5178406526e+00 5.1099893000e-04 0.0000e+00 1.0000e+00
<vert_displacement>
449.36899044212799
</vert_displacement>
</event>
<event>
 4   1200 +8.6263000e+09 1.36396400e-02 7.81665300e-03            nan
       50 -1    0    0    0    0 -4.3467844348e-03 +3.6892095037e-03 +1.7413704926e+00 1.7413869854e+00 4.9935713700e-03 0.0000e+00 0.0000e+00
       11 -1    0    0    0    0 -6.9282704604e-20 +5.8801722538e-20 +2.7755426857e-17 5.1100000000e-04 5.1099893000e-04 0.0000e+00 1.0000e+00
       50  1    1    2    0    0 +2.0202288217e-04 -8.6915562462e-03 +1.5657620289e+00 1.5657941278e+00 4.9935713700e-03 0.0000e+00 0.0000e+00
       11  1    1    2    0    0 -4.5488073170e-03 +1.2380765750e-02 +1.7560846373e-01 1.7610385760e-01 5.1099893000e-04 0.0000e+00 1.0000e+00
<vert_displacement>
154.50830121249561
</vert_displacement>
</event>
<event>
 4   1200 +8.6263000e+09 1.47654700e-02 7.81665300e-03            nan
       50 -1    0    0    0    0 +1.4847002273e-02 +7.9179446545e-03 +5.3305529382e+00 5.3305818341e+00 4.9935713700e-03 0.0000e+00 0.0000e+00
       11 -1    0    0    0    0 +4.0585779591e-19 +2.1644501069e-19 +1.4571604602e-16 5.1100000000e-04 5.1099893000e-04 0.0000e+00 1.0000e+00
       50  1    1    2    0    0 +2.7928151583e-02 +4.9116716024e-03 +5.1343207378e+00 5.1344014725e+00 4.9935713700e-03 0.0000e+00 0.0000e+00
       11  1    1    2    0    0 -1.3081149310e-02 +3.0062730521e-03 +1.9623220034e-01 1.9669136156e-01 5.1099893000e-04 0.0000e+00 1.0000e+00
<vert_displacement>
293.51699551152365
</vert_displacement>
</event>
<event>
 4   1200 +8.6263000e+09 1.77757100e-02 7.81665300e-03            nan
       50 -1    0    0    0    0 +2.1172457979e-02 +2.2092306694e-02 +8.5688526907e+00 8.5689087819e+00 4.9935713700e-03 0.0000e+00 0.0000e+00
       11 -1    0    0    0    0 +1.8859438829e-18 +1.9678797195e-18 +7.6327346269e-16 5.1100000000e-04 5.1099893000e-04 0.0000e+00 1.0000e+00
       50  1    1    2    0    0 +1.9938792399e-02 +3.8384176749e-02 +8.2738370124e+00 8.2739515798e+00 4.9935713700e-03 0.0000e+00 0.0000e+00
       11  1    1    2    0    0 +1.2336655806e-03 -1.6291870055e-02 +2.9501567824e-01 2.9546820216e-01 5.1099893000e-04 0.0000e+00 1.0000e+00
<vert_displacement>
76.437915969814966
</vert_displacement>
</event>
<event>
 4   1200 +8.6263000e+09 2.96538300e-02 7.81665300e-03            nan
       50 -1    0    0    0    0 -3.6693121058e-03 +4.4053166083e-03 +1.1407876020e+01 1.1407878554e+01 4.9935713700e-03 0.0000e+00 0.0000e+00
       11 -1    0    0    0    0 -2.2988322336e-19 +2.7599406990e-19 +7.1470598184e-16 5.1100000000e-04 5.1099893000e-04 0.0000e+00 1.0000e+00
       50  1    1    2    0    0 +2.4888954816e-02 -3.3917317340e-03 +1.0499312715e+01 1.0499343950e+01 4.9935713700e-03 0.0000e+00 0.0000e+00
       11  1    1    2    0    0 -2.8558266922e-02 +7.7970483423e-03 +9.0856330555e-01 9.0904560385e-01 5.1099893000e-04 0.0000e+00 1.0000e+00
<vert_displacement>
274.62548505513831
</vert_displacement>
</event>
<event>
 4   1200 +8.6263000e+09 8.79763200e-03 7.81665300e-03            nan
       50 -1    0    0    0    0 -7.2814177307e-02 -4.5185701893e-02 +2.1439693906e+01 2.1439865750e+01 4.9935713700e-03 0.0000e+00 0.0000e+00
       11 -1    0    0    0    0 -9.4263624713e-19 -5.8496411046e-19 +2.7755353903e-16 5.1100000000e-04 5.1099893000e-04 0.0000e+00 1.0000e+00
       50  1    1    2    0    0 -6.5484954540e-02 -4.3947848994e-02 +2.1388262893e+01 2.1388408875e+01 4.9935713700e-03 0.0000e+00 0.0000e+00
       11  1    1    2    0    0 -7.3292227664e-03 -1.2378528999e-03 +5.1431013332e-02 5.1967875061e-02 5.1099893000e-04 0.0000e+00 1.0000e+00
<vert_displacement>
191.79627024800311
</vert_displacement>
</event>
<event>
 4   1200 +8.6263000e+09 2.92544200e-02 7.81665300e-03            nan
       50 -1    0    0    0    0 -8.0622832363e-03 +8.0667175559e-03 +8.2249995728e+00 8.2250089958e+00 4.9935713700e-03 0.0000e+00 0.0000e+00
       11 -1    0    0    0    0 -2.9246941232e-19 +2.9263027281e-19 +2.9837215103e-16 5.1100000000e-04 5.1099893000e-04 0.0000e+00 1.0000e+00
       50  1    1    2    0    0 -2.2591045991e-02 +3.1519251132e-02 +7.3097826282e+00 7.3098871965e+00 4.9935713700e-03 0.0000e+00 0.0000e+00
       11  1    1    2    0    0 +1.4528762755e-02 -2.3452533576e-02 +9.1521694466e-01 9.1563279932e-01 5.1099893000e-04 0.0000e+00 1.0000e+00
<vert_displacement>
357.76527347147635
</vert_displacement>
</event>
<event>
 4   1200 +8.6263000e+09 1.14897000e-02 7.81665300e-03            nan
       50 -1    0    0    0    0 +1.5037221706e-02 -2.2121088627e-02 +2.4456711203e+01 2.4456726339e+01 4.9935713700e-03 0.0000e+00 0.0000e+00
       11 -1    0    0    0    0 +1.7065520013e-19 -2.5104895576e-19 +2.7755559016e-16 5.1100000000e-04 5.1099893000e-04 0.0000e+00 1.0000e+00
       50  1    1    2    0    0 +1.9496727787e-02 -3.1332297156e-02 +2.4351472269e+01 2.4351500743e+01 4.9935713700e-03 0.0000e+00 0.0000e+00
       11  1    1    2    0    0 -4.4595060812e-03 +9.2112085287e-03 +1.0523893376e-01 1.0573659658e-01 5.1099893000e-04 0.0000e+00 1.0000e+00
<vert_displacement>
493.47176859098789
</vert_displacement>
</event>
<event>
 4   1200 +8.6263000e+09 5.54461300e-03 7.81665300e-03            nan
       50 -1    0    0    0    0 +4.6695344439e-02 -1.6140942698e-02 +1.4123265191e+01 1.4123352491e+01 4.9935713700e-03 0.0000e+00 0.0000e+00
       11 -1    0    0    0    0 +1.5141538135e-18 -5.2338986325e-19 +4.5796419548e-16 5.1100000000e-04 5.1099893000e-04 0.0000e+00 1.0000e+00
       50  1    1    2    0    0 +4.4299146031e-02 -1.6527985406e-02 +1.4117588165e+01 1.4117668225e+01 4.9935713700e-03 0.0000e+00 0.0000e+00
       11  1    1    2    0    0 +2.3961984086e-03 +3.8704270840e-04 +5.6770262845e-03 6.1952656289e-03 5.1099893000e-04 0.0000e+00 1.0000e+00
<vert_displacement>
210.83826682797908
</vert_displacement>
</event>
<event>
 4   1200 +8.6263000e+09 7.37016400e-03 7.81665300e-03            nan
       50 -1    0    0    0    0 -7.4012030202e-02 +1.7532117950e-02 +2.3170696056e+01 2.3170821431e+01 4.9935713700e-03 0.0000e+00 0.0000e+00
       11 -1    0    0    0    0 -6.5162610553e-18 +1.5435849699e-18 +2.0400238167e-15 5.1100000000e-04 5.1099893000e-04 0.0000e+00 1.0000e+00
       50  1    1    2    0    0 -6.8613205170e-02 +1.8615053811e-02 +2.3141924857e+01 2.3142034597e+01 4.9935713700e-03 0.0000e+00 0.0000e+00
       11  1    1    2    0    0 -5.3988250316e-03 -1.0829358619e-03 +2.8771198638e-02 2.9297833585e-02 5.1099893000e-04 0.0000e+00 1.0000e+00
<vert_displacement>
112.04234526009775
</vert_displacement>
</event>
<event>
 4   1200 +8.6263000e+09 8.14477000e-03 7.81665300e-03            nan
       50 -1    0    0    0    0 +6.0956900985e-02 +3.4073908209e-02 +1.8303099164e+01 1.8303233068e+01 4.9935713700e-03 0.0000e+00 0.0000e+00
       11 -1    0    0    0    0 +6.8865482880e-18 +3.8494675820e-18 +2.0677753327e-15 5.1100000000e-04 5.1099893000e-04 0.0000e+00 1.0000e+00
       50  1    1    2    0    0 +6.6230277975e-02 +3.0512855334e-02 +1.8262486317e+01 1.8262632584e+01 4.9935713700e-03 0.0000e+00 0.0000e+00
       11  1    1    2    0    0 -5.2733769894e-03 +3.5610528752e-03 +4.0612847601e-02 4.1111483950e-02 5.1099893000e-04 0.0000e+00 1.0000e+00
<vert_displacement>
233.26136080531657
</vert_displacement>
</event>
<event>
 4   1200 +8.6263000e+09 1.27978900e-02 7.81665300e-03            nan
       50 -1    0    0    0    0 -5.7830068551e-03 -2.7931962365e-03 +1.6704980873e+01 1.6704982854e+01 4.9935713700e-03 0.0000e+00 0.0000e+00
       11 -1    0    0    0    0 -4.3238482602e-20 -2.0884216447e-20 +1.2490008104e-16 5.1100000000e-04 5.1099893000e-04 0.0000e+00 1.0000e+00
       50  1    1    2    0    0 -1.1467950713e-02 -1.3065439177e-02 +1.6567986798e+01 1.6567996671e+01 4.9935713700e-03 0.0000e+00 0.0000e+00
       11  1    1    2    0    0 +5.6849438580e-03 +1.0272242941e-02 +1.3699407533e-01 1.3749718308e-01 5.1099893000e-04 0.0000e+00 1.0000e+00
<vert_displacement>
295.63822546888014
</vert_displacement>
</event>
<event>
 4   1200 +8.6263000e+09 1.67364500e-02 7.81665300e-03            nan
       50 -1    0    0    0    0 +2.0116192487e-02 +1.0862281467e-02 +9.6471566175e+00 9.6471849981e+00 4.9935713700e-03 0.0000e+00 0.0000e+00
       11 -1    0    0    0    0 +4.4853586497e-19 +2.4219905513e-19 +2.1510510703e-16 5.1100000000e-04 5.1099893000e-04 0.0000e+00 1.0000e+00
       50  1    1    2    0    0 +3.7185353895e-03 +8.6905508622e-03 +9.3906606116e+00 9.3906666969e+00 4.9935713700e-03 0.0000e+00 0.0000e+00
       11  1    1    2    0    0 +1.6397657098e-02 +2.1717306043e-03 +2.5649600585e-01 2.5702930127e-01 5.1099893000e-04 0.0000e+00 1.0000e+00
<vert_displacement>
71.710623990937492
</vert_displacement>
</event>
<event>
 4   1200 +8.6263000e+09 1.37452300e-02 7.81665300e-03            nan
       50 -1    0    0    0    0 +2.6586626134e-02 +2.1710653976e-02 +9.3191920256e+00 9.3192565769e+00 4.9935713700e-03 0.0000e+00 0.0000e+00
       11 -1    0    0    0    0 -4.3550680951e-19 -3.5563510758e-19 -1.5265463041e-16 5.1100000000e-04 5.1099893000e-04 0.0000e+00 1.0000e+00
       50  1    1    2    0    0 +2.9942600729e-02 +3.3552492184e-02 +9.1558092202e+00 9.1559210209e+00 4.9935713700e-03 0.0000e+00 0.0000e+00
       11  1    1    2    0    0 -3.3559745946e-03 -1.1841838208e-02 +1.6338280537e-01 1.6384655599e-01 5.1099893000e-04 0.0000e+00 1.0000e+00
<vert_displacement>
233.41341691155463
</vert_displacement>
</event>
<event>
 4   1200 +8.6263000e+09 1.10082500e-02 7.81665300e-03            nan
       50 -1    0    0    0    0 -4.3242559012e-03 -9.1439335997e-03 +3.6810393765e+00 3.6810566605e+00 4.9935713700e-03 0.0000e+00 0.0000e+00
       11 -1    0    0    0    0 +2.7714589364e-19 +5.8604386668e-19 -2.3592150206e-16 5.1100000000e-04 5.1099893000e-04 0.0000e+00 1.0000e+00
       50  1    1    2    0    0 +3.9017969821e-03 -3.3868839343e-03 +3.5843163843e+00 3.5843235866e+00 4.9935713700e-03 0.0000e+00 0.0000e+00
       11  1    1    2    0    0 -8.2260528833e-03 -5.7570496655e-03 +9.6722992182e-02 9.7244073873e-02 5.1099893000e-04 0.0000e+00 1.0000e+00
<vert_displacement>
291.56014126392017
</vert_displacement>
</event>
<event>
 4   1200 +8.6263000e+09 2.73028800e-02 7.81665300e-03            nan
       50 -1    0    0    0    0 +9.8493463524e-03 -5.9913740896e-03 +3.6288823955e+00 3.6289041435e+00 4.9935713700e-03 0.0000e+00 0.0000e+00
       11 -1    0    0    0    0 +1.1676542407e-18 -7.1028605483e-19 +4.3020925110e-16 5.1100000000e-04 5.1099893000e-04 0.0000e+00 1.0000e+00
       50  1    1    2    0    0 -1.8635466361e-02 +2.7374114510e-03 +2.6673587994e+00 2.6674299756e+00 4.9935713700e-03 0.0000e+00 0.0000e+00
       11  1    1    2    0    0 +2.8484812714e-02 -8.7287855406e-03 +9.6152359610e-01 9.6198516789e-01 5.1099893000e-04 0.0000e+00 1.0000e+00
<vert_displacement>
375.85254432230880
</vert_displacement>
</event>
<event>
 4   1200 +8.6263000e+09 1.66942300e-02 7.81665300e-03            nan
       50 -1    0    0    0    0 -2.1362557955e-02 +9.8570319018e-04 +6.7300669405e+00 6.7301027696e+00 4.9935713700e-03 0.0000e+00 0.0000e+00
       11 -1    0    0    0    0 +9.0303749150e-19 -4.1667619492e-20 -2.8449321380e-16 5.1100000000e-04 5.1099893000e-04 0.0000e+00 1.0000e+00
       50  1    1    2    0    0 -2.7298182090e-02 -1.3478691187e-02 +6.4717845458e+00 6.4718580801e+00 4.9935713700e-03 0.0000e+00 0.0000e+00
       11  1    1    2    0    0 +5.9356241357e-03 +1.4464394377e-02 +2.5828239469e-01 2.5875568953e-01 5.1099893000e-04 0.0000e+00 1.0000e+00
<vert_displacement>
264.44288480481345
</vert_displacement>
</event>
<event>
 4   1200 +8.6263000e+09 2.40623500e-02 7.81665300e-03            nan
       50 -1    0    0    0    0 +5.3782396592e-02 +3.4710240433e-02 +2.0507409613e+01 2.0507510120e+01 4.9935713700e-03 0.0000e+00 0.0000e+00
       11 -1    0    0    0    0 -1.0918644518e-19 -7.0467067373e-20 -4.1633160613e-17 5.1100000000e-04 5.1099893000e-04 0.0000e+00 1.0000e+00
       50  1    1    2    0    0 +5.5055328272e-02 +5.7146029125e-02 +1.9950054974e+01 1.9950213411e+01 4.9935713700e-03 0.0000e+00 0.0000e+00
       11  1    1    2    0    0 -1.2729316806e-03 -2.2435788693e-02 +5.5735463922e-01 5.5780770876e-01 5.1099893000e-04 0.0000e+00 1.0000e+00
<vert_displacement>
490.94704531679616
</vert_displacement>
</event>
<event>
 4   1200 +8.6263000e+09 5.67354400e-03 7.81665300e-03            nan
       50 -1    0    0    0    0 -1.0022489710e-02 +9.3227604420e-03 +4.1352011572e+00 4.1352268270e+00 4.9935713700e-03 0.0000e+00 0.0000e+00
       11 -1    0    0    0    0 +2.1863022340e-19 -2.0336635477e-19 -9.0205126562e-17 5.1100000000e-04 5.1099893000e-04 0.0000e+00 1.0000e+00
       50  1    1    2    0    0 -9.0897831056e-03 +1.1839562771e-02 +4.1280873207e+00 4.1281173266e+00 4.9935713700e-03 0.0000e+00 0.0000e+00
       11  1    1    2    0    0 -9.3270660488e-04 -2.5168023286e-03 +7.1138365288e-03 7.6205003535e-03 5.1099893000e-04 0.0000e+00 1.0000e+00
<vert_displacement>
19.797619859556590
</vert_displacement>
</event>
<event>
 4   1200 +8.6263000e+09 3.14699900e-02 7.81665300e-03            nan
       50 -1    0    0    0    0 +7.7816605682e-02 -1.2300271091e-03 +3.1853810887e+01 3.1853906352e+01 4.9935713700e-03 0.0000e+00 0.0000e+00
       11 -1    0    0    0    0 +3.1190164103e-18 -4.9301491692e-20 +1.2767526676e-15 5.1100000000e-04 5.1099893000e-04 0.0000e+00 1.0000e+00
       50  1    1    2    0    0 +6.5884638432e-02 +2.8374395522e-02 +3.0879346136e+01 3.0879429863e+01 4.9935713700e-03 0.0000e+00 0.0000e+00
       11  1    1    2    0    0 +1.1931967249e-02 -2.9604422631e-02 +9.7446475055e-01 9.7498748959e-01 5.1099893000e-04 0.0000e+00 1.0000e+00
<vert_displacement>
317.69662550439648
</vert_displacement>
</event>
<event>
 4   1200 +8.6263000e+09 8.89072900e-03 7.81665300e-03            nan
       50 -1    0    0    0    0 +2.5036038773e-02 +1.2015098679e-02 +1.0537246102e+01 1.0537283877e+01 4.9935713700e-03 0.0000e+00 0.0000e+00
       11 -1    0    0    0    0 +1.4672943249e-18 +7.0417234392e-19 +6.1755941287e-16 5.1100000000e-04 5.1099893000e-04 0.0000e+00 1.0000e+00
       50  1    1    2    0    0 +1.9934836270e-02 +1.7372998988e-02 +1.0484035450e+01 1.0484069986e+01 4.9935713700e-03 0.0000e+00 0.0000e+00
       11  1    1    2    0    0 +5.1012025029e-03 -5.3579003088e-03 +5.3210651023e-02 5.3724890552e-02 5.1099893000e-04 0.0000e+00 1.0000e+00
<vert_displacement>
311.90232466916876
</vert_displacement>
</event>
<event>
 4   1200 +8.6263000e+09 8.85246600e-03 7.81665300e-03            nan
       50 -1    0    0    0    0 +2.5310962733e-03 +2.0654095710e-02 +9.6810509496e+00 9.6810746007e+00 4.9935713700e-03 0.0000e+00 0.0000e+00
       11 -1    0    0    0    0 +8.5265483784e-20 +6.9577814221e-19 +3.2612726013e-16 5.1100000000e-04 5.1099893000e-04 0.0000e+00 1.0000e+00
       50  1    1    2    0    0 -3.4234909423e-03 +1.6283225106e-02 +9.6284925429e+00 9.6285082151e+00 4.9935713700e-03 0.0000e+00 0.0000e+00
       11  1    1    2    0    0 +5.9545872157e-03 +4.3708706041e-03 +5.2558406789e-02 5.3077385607e-02 5.1099893000e-04 0.0000e+00 1.0000e+00
<vert_displacement>
435.17043382491426
</vert_displacement>
</event>
<event>
 4   1200 +8.6263000e+09 5.83677000e-03 7.81665300e-03            nan
       50 -1    0    0    0    0 -6.7754521818e-03 -9.2251189167e-03 +5.5334401136e+00 5.5334542048e+00 4.9935713700e-03 0.0000e+00 0.0000e+00
       11 -1    0    0    0    0 +6.7121164074e-19 +9.1388840745e-19 -5.4817144568e-16 5.1100000000e-04 5.1099893000e-04 0.0000e+00 1.0000e+00
       50  1    1    2    0    0 -9.1226505043e-03 -1.1099952867e-02 +5.5244831802e+00 5.5245041203e+00 4.9935713700e-03 0.0000e+00 0.0000e+00
       11  1    1    2    0    0 +2.3471983225e-03 +1.8748339503e-03 +8.9569334369e-03 9.4610844413e-03 5.1099893000e-04 0.0000e+00 1.0000e+00
<vert_displacement>
209.42409436161620
</vert_displacement>
</event>
<event>
 4   1200 +8.6263000e+09 1.54354000e-02 7.81665300e-03            nan
       50 -1    0    0    0    0 -3.6828149029e-02 +2.5344635787e-02 +1.9229579716e+01 1.9229632332e+01 4.9935713700e-03 0.0000e+00 0.0000e+00
       11 -1    0    0    0    0 -4.0399199209e-18 +2.7802184390e-18 +2.1094180460e-15 5.1100000000e-04 5.1099893000e-04 0.0000e+00 1.0000e+00
       50  1    1    2    0    0 -3.3448865662e-02 +3.9365583067e-02 +1.9018518461e+01 1.9018589271e+01 4.9935713700e-03 0.0000e+00 0.0000e+00
       11  1    1    2    0    0 -3.3792833669e-03 -1.4020947280e-02 +2.1106125478e-01 2.1155406143e-01 5.1099893000e-04 0.0000e+00 1.0000e+00
<vert_displacement>
389.99692694729430
</vert_displacement>
</event>
<event>
 4   1200 +8.6263000e+09 1.62717700e-02 7.81665300e-03            nan
       50 -1    0    0    0    0 -1.1022136335e-02 +3.2144615770e-04 +6.1959167789e+00 6.1959286033e+00 4.9935713700e-03 0.0000e+00 0.0000e+00
       11 -1    0    0    0    0 +1.5676657970e-18 -4.5718917973e-20 -8.8123813022e-16 5.1100000000e-04 5.1099893000e-04 0.0000e+00 1.0000e+00
       50  1    1    2    0    0 -1.5367060393e-02 -1.4421801943e-02 +5.9515427515e+00 5.9515821588e+00 4.9935713700e-03 0.0000e+00 0.0000e+00
       11  1    1    2    0    0 +4.3449240580e-03 +1.4743248100e-02 +2.4437402738e-01 2.4485744446e-01 5.1099893000e-04 0.0000e+00 1.0000e+00
<vert_displacement>
343.82370919711730
</vert_displacement>
</event>
<event>
 4   1200 +8.6263000e+09 8.09235400e-03 7.81665300e-03            nan
       50 -1    0    0    0    0 -3.1965472948e-02 +3.0513719735e-02 +1.5517002744e+01 1.5517066474e+01 4.9935713700e-03 0.0000e+00 0.0000e+00
       11 -1    0    0    0    0 +4.5455757917e-18 -4.3391325999e-18 -2.2065593131e-15 5.1100000000e-04 5.1099893000e-04 0.0000e+00 1.0000e+00
       50  1    1    2    0    0 -2.6146203744e-02 +3.3198382045e-02 +1.5477228306e+01 1.5477286801e+01 4.9935713700e-03 0.0000e+00 0.0000e+00
       11  1    1    2    0    0 -5.8192692043e-03 -2.6846623098e-03 +3.9774437825e-02 4.0290672990e-02 5.1099893000e-04 0.0000e+00 1.0000e+00
<vert_displacement>
340.62908145604450
</vert_displacement>
</event>
<event>
 4   1200 +8.6263000e+09 1.87543700e-02 7.81665300e-03            nan
       50 -1    0    0    0    0 +1.7275261470e-02 +1.2421728611e-03 +9.1621611731e+00 9.1621789044e+00 4.9935713700e-03 0.0000e+00 0.0000e+00
       11 -1    0    0    0    0 -1.3999094685e-18 -1.0066010016e-19 -7.4246032113e-16 5.1100000000e-04 5.1099893000e-04 0.0000e+00 1.0000e+00
       50  1    1    2    0    0 -7.3941799735e-05 -5.6666565235e-03 +8.8303712401e+00 8.8303744706e+00 4.9935713700e-03 0.0000e+00 0.0000e+00
       11  1    1    2    0    0 +1.7349203269e-02 +6.9088293846e-03 +3.3178993300e-01 3.3231543379e-01 5.1099893000e-04 0.0000e+00 1.0000e+00
<vert_displacement>
253.05441532735199
</vert_displacement>
</event>
<event>
 4   1200 +8.6263000e+09 1.56841500e-02 7.81665300e-03            nan
       50 -1    0    0    0    0 -1.2612370883e-02 +7.4907498154e-03 +3.6781975578e+00 3.6782301985e+00 4.9935713700e-03 0.0000e+00 0.0000e+00
       11 -1    0    0    0    0 -5.3534160061e-19 +3.1795052914e-19 +1.5612387125e-16 5.1100000000e-04 5.1099893000e-04 0.0000e+00 1.0000e+00
       50  1    1    2    0    0 +3.0301410182e-03 +7.7353355881e-03 +3.4473279080e+00 3.4473415349e+00 4.9935713700e-03 0.0000e+00 0.0000e+00
       11  1    1    2    0    0 -1.5642511901e-02 -2.4458577276e-04 +2.3086964982e-01 2.3139966363e-01 5.1099893000e-04 0.0000e+00 1.0000e+00
<vert_displacement>
12.618547071499565
</vert_displacement>
</event>
<event>
 4   1200 +8.6263000e+09 1.69441200e-02 7.81665300e-03            nan
       50 -1    0    0    0    0 +2.9700410907e-02 -1.8813350804e-02 +9.1596517165e+00 9.1597205503e+00 4.9935713700e-03 0.0000e+00 0.0000e+00
       11 -1    0    0    0    0 -9.6747332804e-19 +6.1283378104e-19 -2.9837023999e-16 5.1100000000e-04 5.1099893000e-04 0.0000e+00 1.0000e+00
       50  1    1    2    0    0 +3.4028468102e-02 -3.3609735826e-02 +8.8954278062e+00 8.8955577870e+00 4.9935713700e-03 0.0000e+00 0.0000e+00
       11  1    1    2    0    0 -4.3280571954e-03 +1.4796385021e-02 +2.6422391036e-01 2.6467376336e-01 5.1099893000e-04 0.0000e+00 1.0000e+00
<vert_displacement>
308.56270394929771
</vert_displacement>
</event>
<event>
 4   1200 +8.6263000e+09 2.50051900e-02 7.81665300e-03            nan
       50 -1    0    0    0    0 -2.2066806912e-02 +5.0624102446e-02 +1.9406144689e+01 1.9406223908e+01 4.9935713700e-03 0.0000e+00 0.0000e+00
       11 -1    0    0    0    0 +1.9883336353e-18 -4.5614939239e-18 -1.7485941836e-15 5.1100000000e-04 5.1099893000e-04 0.0000e+00 1.0000e+00
       50  1    1    2    0    0 -4.0016692319e-02 +6.4944835741e-02 +1.8799696549e+01 1.8799851979e+01 4.9935713700e-03 0.0000e+00 0.0000e+00
       11  1    1    2    0    0 +1.7949885407e-02 -1.4320733296e-02 +6.0644814007e-01 6.0688292899e-01 5.1099893000e-04 0.0000e+00 1.0000e+00
<vert_displacement>
67.575928768797453
</vert_displacement>
</event>
<event>
 4   1200 +8.6263000e+09 6.43428200e-03 7.81665300e-03            nan
       50 -1    0    0    0    0 +3.7067201338e-02 -2.0367283589e-02 +1.1006501692e+01 1.1006584086e+01 4.9935713700e-03 0.0000e+00 0.0000e+00
       11 -1    0    0    0    0 -4.4399812287e-19 +2.4396327091e-19 -1.3183801082e-16 5.1100000000e-04 5.1099893000e-04 0.0000e+00 1.0000e+00
       50  1    1    2    0    0 +3.5806183967e-02 -1.6463408787e-02 +1.0990378780e+01 1.0990450572e+01 4.9935713700e-03 0.0000e+00 0.0000e+00
       11  1    1    2    0    0 +1.2610173708e-03 -3.9038748025e-03 +1.6122912725e-02 1.6644513749e-02 5.1099893000e-04 0.0000e+00 1.0000e+00
<vert_displacement>
376.53461930271868
</vert_displacement>
</event>
<event>
 4   1200 +8.6263000e+09 2.31826400e-02 7.81665300e-03            nan
       50 -1    0    0    0    0 -1.1391556968e-02 +4.3734169407e-03 +7.4142959605e+00 7.4143076831e+00 4.9935713700e-03 0.0000e+00 0.0000e+00
       11 -1    0    0    0    0 +3.1983359678e-20 -1.2278968312e-20 -2.0816653520e-17 5.1100000000e-04 5.1099893000e-04 0.0000e+00 1.0000e+00
       50  1    1    2    0    0 +2.0280661886e-03 -1.4761575817e-02 +6.8732041346e+00 6.8732220995e+00 4.9935713700e-03 0.0000e+00 0.0000e+00
       11  1    1    2    0    0 -1.3419623157e-02 +1.9134992758e-02 +5.4109182587e-01 5.4159658361e-01 5.1099893000e-04 0.0000e+00 1.0000e+00
<vert_displacement>
369.66809029743945
</vert_displacement>
</event>
<event>
 4   1200 +8.6263000e+09 2.96529900e-02 7.81665300e-03            nan
       50 -1    0    0    0    0 -5.5824633067e-02 +9.6025333771e-03 +1.8304306622e+01 1.8304394949e+01 4.9935713700e-03 0.0000e+00 0.0000e+00
       11 -1    0    0    0    0 -1.4390294280e-18 +2.4753101550e-19 +4.7184252616e-16 5.1100000000e-04 5.1099893000e-04 0.0000e+00 1.0000e+00
       50  1    1    2    0    0 -4.8994851711e-02 -1.9791333048e-02 +1.7426154789e+01 1.7426235619e+01 4.9935713700e-03 0.0000e+00 0.0000e+00
       11  1    1    2    0    0 -6.8297813560e-03 +2.9393866425e-02 +8.7815183318e-01 8.7867032984e-01 5.1099893000e-04 0.0000e+00 1.0000e+00
<vert_displacement>
57.846197305648268
</vert_displacement>
</event>
<event>
 4   1200 +8.6263000e+09 4.53617500e-02 7.81665300e-03            nan
       50 -1    0    0    0    0 -8.3815885518e-03 -6.5576827934e-03 +8.6096940500e+00 8.6097020753e+00 4.9935713700e-03 0.0000e+00 0.0000e+00
       11 -1    0    0    0    0 +1.3510098951e-20 +1.0570185220e-20 -1.3877777206e-17 5.1100000000e-04 5.1099893000e-04 0.0000e+00 1.0000e+00
       50  1    1    2    0    0 +2.8259047068e-02 +3.0018786817e-02 +3.1548478243e+00 3.1551211437e+00 4.9935713700e-03 0.0000e+00 0.0000e+00
       11  1    1    2    0    0 -3.6640635620e-02 -3.6576469610e-02 +5.4548462257e+00 5.4550919315e+00 5.1099893000e-04 0.0000e+00 1.0000e+00
<vert_displacement>
383.38505707042037
</vert_displacement>
</event>
<event>
 4   1200 +8.6263000e+09 9.83929400e-03 7.81665300e-03            nan
       50 -1    0    0    0    0 -1.8148378246e-02 +1.0168256581e-03 +1.0725473022e+01 1.0725489587e+01 4.9935713700e-03 0.0000e+00 0.0000e+00
       11 -1    0    0    0    0 -9.0406928776e-19 +5.0653608605e-20 +5.3429406332e-16 5.1100000000e-04 5.1099893000e-04 0.0000e+00 1.0000e+00
       50  1    1    2    0    0 -1.9744710639e-02 -7.2923460267e-03 +1.0654670517e+01 1.0654692478e+01 4.9935713700e-03 0.0000e+00 0.0000e+00
       11  1    1    2    0    0 +1.5963323929e-03 +8.3091716848e-03 +7.0802505107e-02 7.1308109360e-02 5.1099893000e-04 0.0000e+00 1.0000e+00
<vert_displacement>
345.61415475132918
</vert_displacement>
</event>
<event>
 4   1200 +8.6263000e+09 6.37742600e-03 7.81665300e-03            nan
       50 -1    0    0    0    0 -4.3437294592e-02 +3.5422833337e-02 +1.5876371186e+01 1.5876470910e+01 4.9935713700e-03 0.0000e+00 0.0000e+00
       11 -1    0    0    0    0 +1.5187596552e-19 -1.2385386947e-19 -5.5510805299e-17 5.1100000000e-04 5.1099893000e-04 0.0000e+00 1.0000e+00
       50  1    1    2    0    0 -4.2920985896e-02 +3.1450058570e-02 +1.5860968818e+01 1.5861058859e+01 4.9935713700e-03 0.0000e+00 0.0000e+00
       11  1    1    2    0    0 -5.1630869641e-04 +3.9727747665e-03 +1.5402367569e-02 1.5923051236e-02 5.1099893000e-04 0.0000e+00 1.0000e+00
<vert_displacement>
444.06356975899035
</vert_displacement>
</event>
<event>
 4   1200 +8.6263000e+09 1.27253900e-02 7.81665300e-03            nan
       50 -1    0    0    0    0 +6.5540504127e-02 +4.9951902124e-02 +3.9127362775e+01 3.9127449871e+01 4.9935713700e-03 0.0000e+00 0.0000e+00
       11 -1    0    0    0    0 -2.6035534793e-18 -1.9843065034e-18 -1.5543087873e-15 5.1100000000e-04 5.1099893000e-04 0.0000e+00 1.0000e+00
       50  1    1    2    0    0 +5.9828933201e-02 +3.9440916274e-02 +3.8992870391e+01 3.8992936557e+01 4.9935713700e-03 0.0000e+00 0.0000e+00
       11  1    1    2    0    0 +5.7115709257e-03 +1.0510985850e-02 +1.3449238453e-01 1.3502431441e-01 5.1099893000e-04 0.0000e+00 1.0000e+00
<vert_displacement>
451.22723517420781
</vert_displacement>
</event>
<event>
 4   1200 +8.6263000e+09 2.05473600e-02 7.81665300e-03            nan
       50 -1    0    0    0    0 +6.9336188028e-03 -4.0860369371e-03 +6.1391278716e+00 6.1391351777e+00 4.9935713700e-03 0.0000e+00 0.0000e+00
       11 -1    0    0    0    0 -1.3322694745e-19 +7.8511704173e-20 -1.1796109500e-16 5.1100000000e-04 5.1099893000e-04 0.0000e+00 1.0000e+00
       50  1    1    2    0    0 +5.9502042645e-03 -2.3733112006e-02 +5.7219125029e+00 5.7219669950e+00 4.9935713700e-03 0.0000e+00 0.0000e+00
       11  1    1    2    0    0 +9.8341453835e-04 +1.9647075069e-02 +4.1721536870e-01 4.1767918270e-01 5.1099893000e-04 0.0000e+00 1.0000e+00
<vert_displacement>
21.697131934358925
</vert_displacement>
</event>
<event>
 4   1200 +8.6263000e+09 1.25204900e-02 7.81665300e-03            nan
       50 -1    0    0    0    0 +8.7947922933e-03 +4.3851230648e-03 +1.2639896190e+01 1.2639900997e+01 4.9935713700e-03 0.0000e+00 0.0000e+00
       11 -1    0    0    0    0 +1.2118417689e-18 +6.0422976628e-19 +1.7416618435e-15 5.1100000000e-04 5.1099893000e-04 0.0000e+00 1.0000e+00
       50  1    1    2    0    0 -2.0107669881e-03 +2.1457170169e-04 +1.2509564171e+01 1.2509565331e+01 4.9935713700e-03 0.0000e+00 0.0000e+00
       11  1    1    2    0    0 +1.0805559281e-02 +4.1705513631e-03 +1.3033201928e-01 1.3084666591e-01 5.1099893000e-04 0.0000e+00 1.0000e+00
<vert_displacement>
398.28032372078991
</vert_displacement>
</event>
<event>
 4   1200 +8.6263000e+09 2.71035000e-02 7.81665300e-03            nan
       50 -1    0    0    0    0 +4.1728711442e-02 -1.7398345846e-02 +1.6925984599e+01 1.6926045716e+01 4.9935713700e-03 0.0000e+00 0.0000e+00
       11 -1    0    0    0    0 -2.9423760547e-18 +1.2267926432e-18 -1.1934854940e-15 5.1100000000e-04 5.1099893000e-04 0.0000e+00 1.0000e+00
       50  1    1    2    0    0 +6.2133753677e-02 -1.9183068418e-03 +1.6200393334e+01 1.6200513368e+01 4.9935713700e-03 0.0000e+00 0.0000e+00
       11  1    1    2    0    0 -2.0405042235e-02 -1.5480039004e-02 +7.2559126553e-01 7.2604334794e-01 5.1099893000e-04 0.0000e+00 1.0000e+00
<vert_displacement>
92.776994563599459
</vert_displacement>
</event>
<event>
 4   1200 +8.6263000e+09 2.29183600e-02 7.81665300e-03            nan
       50 -1    0    0    0    0 -7.8248645701e-03 +5.6038140775e-03 +2.4348254316e+00 2.4348495742e+00 4.9935713700e-03 0.0000e+00 0.0000e+00
       11 -1    0    0    0    0 -6.0208751099e-19 +4.3118784226e-19 +1.8734867174e-16 5.1100000000e-04 5.1099893000e-04 0.0000e+00 1.0000e+00
       50  1    1    2    0    0 +1.6644204712e-02 +6.0854557274e-03 +1.7515808661e+00 1.7516776326e+00 4.9935713700e-03 0.0000e+00 0.0000e+00
       11  1    1    2    0    0 -2.4469069282e-02 -4.8164164988e-04 +6.8324456541e-01 6.8368294159e-01 5.1099893000e-04 0.0000e+00 1.0000e+00
<vert_displacement>
499.02948190535488
</vert_displacement>
</event>
<event>
 4   1200 +8.6263000e+09 1.83210100e-02 7.81665300e-03            nan
       50 -1    0    0    0    0 +1.0162246367e-01 -4.0420609991e-02 +2.9955710233e+01 2.9955910293e+01 4.9935713700e-03 0.0000e+00 0.0000e+00
       11 -1    0    0    0    0 +7.2030906074e-18 -2.8650487859e-18 +2.1232873837e-15 5.1100000000e-04 5.1099893000e-04 0.0000e+00 1.0000e+00
       50  1    1    2    0    0 +1.1819053641e-01 -4.0781392174e-02 +2.9648458613e+01 2.9648722657e+01 4.9935713700e-03 0.0000e+00 0.0000e+00
       11  1    1    2    0    0 -1.6568072741e-02 +3.6078218253e-04 +3.0725162037e-01 3.0769863591e-01 5.1099893000e-04 0.0000e+00 1.0000e+00
<vert_displacement>
150.99608202660772
</vert_displacement>
</event>
<event>
 4   1200 +8.6263000e+09 9.74117000e-03 7.81665300e-03            nan
       50 -1    0    0    0    0 +4.1184282331e-02 -5.7169509508e-02 +3.0550146420e+01 3.0550228080e+01 4.9935713700e-03 0.0000e+00 0.0000e+00
       11 -1    0    0    0    0 -1.1225056730e-18 +1.5581939301e-18 -8.3266505390e-16 5.1100000000e-04 5.1099893000e-04 0.0000e+00 1.0000e+00
       50  1    1    2    0    0 +4.7701950587e-02 -6.2165597919e-02 +3.0481524009e+01 3.0481625135e+01 4.9935713700e-03 0.0000e+00 0.0000e+00
       11  1    1    2    0    0 -6.5176682559e-03 +4.9960884114e-03 +6.8622411331e-02 6.9113944727e-02 5.1099893000e-04 0.0000e+00 1.0000e+00
<vert_displacement>
170.12437230812597
</vert_displacement>
</event>
<event>
 4   1200 +8.6263000e+09 5.36178100e-02 7.81665300e-03            nan
       50 -1    0    0    0    0 -1.5186219441e-03 +5.3017944787e-02 +2.1217889248e+01 2.1217956129e+01 4.9935713700e-03 0.0000e+00 0.0000e+00
       11 -1    0    0    0    0 -1.9070742738e-19 +6.6579545318e-18 +2.6645269340e-15 5.1100000000e-04 5.1099893000e-04 0.0000e+00 1.0000e+00
       50  1    1    2    0    0 +5.2058466128e-02 +4.2592932327e-02 +1.7914305285e+01 1.7914432255e+01 4.9935713700e-03 0.0000e+00 0.0000e+00
       11  1    1    2    0    0 -5.3577088072e-02 +1.0425012460e-02 +3.3035839625e+00 3.3040348732e+00 5.1099893000e-04 0.0000e+00 1.0000e+00
<vert_displacement>
36.106401243637720
</vert_displacement>
</event>
<event>
 4   1200 +8.6263000e+09 1.41510800e-02 7.81665300e-03            nan
       50 -1    0    0    0    0 +8.7036953115e-03 -6.9724815590e-03 +2.8060045097e+00 2.8060311142e+00 4.9935713700e-03 0.0000e+00 0.0000e+00
       11 -1    0    0    0    0 -4.3045933215e-20 +3.4483855970e-20 -1.3877678205e-17 5.1100000000e-04 5.1099893000e-04 0.0000e+00 1.0000e+00
       50  1    1    2    0    0 +1.5950700483e-02 +4.1711124064e-03 +2.6223032631e+00 2.6223598461e+00 4.9935713700e-03 0.0000e+00 0.0000e+00
       11  1    1    2    0    0 -7.2470051713e-03 -1.1143593965e-02 +1.8370124655e-01 1.8418226808e-01 5.1099893000e-04 0.0000e+00 1.0000e+00
<vert_displacement>
470.71435276714817
</vert_displacement>
</event>
<event>
 4   1200 +8.6263000e+09 9.32957400e-03 7.81665300e-03            nan
       50 -1    0    0    0    0 -3.1747975330e-02 +1.0278220235e-02 +1.0689097822e+01 1.0689151078e+01 4.9935713700e-03 0.0000e+00 0.0000e+00
       11 -1    0    0    0    0 -1.7517899848e-18 +5.6713170154e-19 +5.8980310765e-16 5.1100000000e-04 5.1099893000e-04 0.0000e+00 1.0000e+00
       50  1    1    2    0    0 -3.1692308254e-02 +1.8099123803e-02 +1.0627968684e+01 1.0628032521e+01 4.9935713700e-03 0.0000e+00 0.0000e+00
       11  1    1    2    0    0 -5.5667075645e-05 -7.8209035677e-03 +6.1129138205e-02 6.1629556943e-02 5.1099893000e-04 0.0000e+00 1.0000e+00
<vert_displacement>
15.813876637425718
</vert_displacement>
</event>
<event>
 4   1200 +8.6263000e+09 8.95517100e-03 7.81665300e-03            nan
       50 -1    0    0    0    0 +4.5004220045e-02 +3.0186290117e-02 +2.1230550516e+01 2.1230620262e+01 4.9935713700e-03 0.0000e+00 0.0000e+00
       11 -1    0    0    0    0 +1.5591456287e-18 +1.0457868670e-18 +7.3552035782e-16 5.1100000000e-04 5.1099893000e-04 0.0000e+00 1.0000e+00
       50  1    1    2    0    0 +4.2342507562e-02 +2.3125452761e-02 +2.1176356344e+01 2.1176411891e+01 4.9935713700e-03 0.0000e+00 0.0000e+00
       11  1    1    2    0    0 +2.6617124828e-03 +7.0608373563e-03 +5.4194172053e-02 5.4719370811e-02 5.1099893000e-04 0.0000e+00 1.0000e+00
<vert_displacement>
237.90770782328428
</vert_displacement>
</event>
<event>
 4   1200 +8.6263000e+09 5.76049800e-03 7.81665300e-03            nan
       50 -1    0    0    0    0 -8.3947221673e-03 +1.9814125962e-02 +1.1801503885e+01 1.1801524560e+01 4.9935713700e-03 0.0000e+00 0.0000e+00
       11 -1    0    0    0    0 +4.8370945263e-19 -1.1417030644e-18 -6.8001047212e-16 5.1100000000e-04 5.1099893000e-04 0.0000e+00 1.0000e+00
       50  1    1    2    0    0 -8.5588197718e-03 +2.2667396468e-02 +1.1793423036e+01 1.1793448982e+01 4.9935713700e-03 0.0000e+00 0.0000e+00
       11  1    1    2    0    0 +1.6409760450e-04 -2.8532705061e-03 +8.0808490149e-03 8.5865779745e-03 5.1099893000e-04 0.0000e+00 1.0000e+00
<vert_displacement>
453.43289653216880
</vert_displacement>
</event>
<event>
 4   1200 +8.6263000e+09 1.65633700e-02 7.81665300e-03            nan
       50 -1    0    0    0    0 +1.2350683095e-02 +3.1584116468e-04 +3.6296903088e+00 3.6297147701e+00 4.9935713700e-03 0.0000e+00 0.0000e+00
       11 -1    0    0    0    0 +7.4373752052e-19 +1.9019427742e-20 +2.1857389180e-16 5.1100000000e-04 5.1099893000e-04 0.0000e+00 1.0000e+00
       50  1    1    2    0    0 +2.4481277944e-02 -8.6355198151e-03 +3.3663459562e+00 3.3664497528e+00 4.9935713700e-03 0.0000e+00 0.0000e+00
       11  1    1    2    0    0 -1.2130594848e-02 +8.9513609798e-03 +2.6334435255e-01 2.6377601736e-01 5.1099893000e-04 0.0000e+00 1.0000e+00
<vert_displacement>
227.16443703581515
</vert_displacement>
</event>
<event>
 4   1200 +8.6263000e+09 5.19392800e-02 7.81665300e-03            nan
       50 -1    0    0    0    0 +1.3392113296e-02 -2.3560209445e-02 +1.1969914321e+01 1.1969946040e+01 4.9935713700e-03 0.0000e+00 0.0000e+00
       11 -1    0    0    0    0 -6.2106519832e-20 +1.0926151705e-19 -5.5511008960e-17 5.1100000000e-04 5.1099893000e-04 0.0000e+00 1.0000e+00
       50  1    1    2    0    0 -4.1906754874e-02 -7.3111381246e-03 +8.1026581962e+00 8.1027714030e+00 4.9935713700e-03 0.0000e+00 0.0000e+00
       11  1    1    2    0    0 +5.5298868170e-02 -1.6249071320e-02 +3.8672561244e+00 3.8676856374e+00 5.1099893000e-04 0.0000e+00 1.0000e+00
<vert_displacement>
128.81212167655303
</vert_displacement>
</event>
<event>
 4   1200 +8.6263000e+09 7.37341700e-03 7.81665300e-03            nan
       50 -1    0    0    0    0 -6.7836383158e-03 +3.0901454830e-02 +1.2261791218e+01 1.2261833050e+01 4.9935713700e-03 0.0000e+00 0.0000e+00
       11 -1    0    0    0    0 +4.2227002517e-20 -1.9235633596e-19 -7.6327578880e-17 5.1100000000e-04 5.1099893000e-04 0.0000e+00 1.0000e+00
       50  1    1    2    0    0 -2.4472170611e-03 +2.7547681337e-02 +1.2232934704e+01 1.2232966985e+01 4.9935713700e-03 0.0000e+00 0.0000e+00
       11  1    1    2    0    0 -4.3364212547e-03 +3.3537734934e-03 +2.8856514635e-02 2.9377064229e-02 5.1099893000e-04 0.0000e+00 1.0000e+00
<vert_displacement>
126.52329001395512
</vert_displacement>
</event>
<event>
 4   1200 +8.6263000e+09 1.32913000e-02 7.81665300e-03            nan
       50 -1    0    0    0    0 +1.0203833301e-02 +5.8810934854e-03 +2.9341245324e+00 2.9341524182e+00 4.9935713700e-03 0.0000e+00 0.0000e+00
       11 -1    0    0    0    0 +1.5685014253e-19 +9.0402334511e-20 +4.5102447042e-17 5.1100000000e-04 5.1099893000e-04 0.0000e+00 1.0000e+00
       50  1    1    2    0    0 +1.3736139246e-02 +1.7189356278e-02 +2.7771413778e+00 2.7772330337e+00 4.9935713700e-03 0.0000e+00 0.0000e+00
       11  1    1    2    0    0 -3.5323059450e-03 -1.1308262793e-02 +1.5698315467e-01 1.5743038450e-01 5.1099893000e-04 0.0000e+00 1.0000e+00
<vert_displacement>
19.605683726260605
</vert_displacement>
</event>
<event>
 4   1200 +8.6263000e+09 3.51181200e-02 7.81665300e-03            nan
       50 -1    0    0    0    0 -1.2538119436e-02 -3.4202185027e-02 +1.6395620546e+01 1.6395661775e+01 4.9935713700e-03 0.0000e+00 0.0000e+00
       11 -1    0    0    0    0 -1.4433199785e-18 -3.9371691431e-18 +1.8873744834e-15 5.1100000000e-04 5.1099893000e-04 0.0000e+00 1.0000e+00
       50  1    1    2    0    0 -4.4747977145e-02 -2.1195972549e-02 +1.5112717555e+01 1.5112799492e+01 4.9935713700e-03 0.0000e+00 0.0000e+00
       11  1    1    2    0    0 +3.2209857709e-02 -1.3006212478e-02 +1.2829029915e+00 1.2833732829e+00 5.1099893000e-04 0.0000e+00 1.0000e+00
<vert_displacement>
64.269261739687749
</vert_displacement>
</event>
<event>
 4   1200 +8.6263000e+09 1.36762400e-02 7.81665300e-03            nan
       50 -1    0    0    0    0 +1.9822827425e-02 +1.8252939138e-02 +1.8423272954e+01 1.8423293337e+01 4.9935713700e-03 0.0000e+00 0.0000e+00
       11 -1    0    0    0    0 -1.3438818893e-19 -1.2374518432e-19 -1.2489995667e-16 5.1100000000e-04 5.1099893000e-04 0.0000e+00 1.0000e+00
       50  1    1    2    0    0 +6.9927938505e-03 +1.9466246454e-02 +1.8263275234e+01 1.8263287630e+01 4.9935713700e-03 0.0000e+00 0.0000e+00
       11  1    1    2    0    0 +1.2830033574e-02 -1.2133073162e-03 +1.5999771927e-01 1.6051670681e-01 5.1099893000e-04 0.0000e+00 1.0000e+00
<vert_displacement>
60.985049272770070
</vert_displacement>
</event>
<event>
 4   1200 +8.6263000e+09 2.89656800e-02 7.81665300e-03            nan
       50 -1    0    0    0    0 +1.0861160150e-02 -3.1970945047e-03 +6.2539479978e+00 6.2539602398e+00 4.9935713700e-03 0.0000e+00 0.0000e+00
       11 -1    0    0    0    0 +1.8076017216e-19 -5.3208620914e-20 +1.0408323800e-16 5.1100000000e-04 5.1099893000e-04 0.0000e+00 1.0000e+00
       50  1    1    2    0    0 +2.7799485448e-02 -2.4381976400e-02 +5.3161279341e+00 5.3162588763e+00 4.9935713700e-03 0.0000e+00 0.0000e+00
       11  1    1    2    0    0 -1.6938325299e-02 +2.1184881895e-02 +9.3782006368e-01 9.3821236351e-01 5.1099893000e-04 0.0000e+00 1.0000e+00
<vert_displacement>
82.864211689417360
</vert_displacement>
</event>
<event>
 4   1200 +8.6263000e+09 1.27928100e-02 7.81665300e-03            nan
       50 -1    0    0    0    0 -7.4046034981e-04 -3.8143865446e-03 +1.6773069903e+00 1.6773189242e+00 4.9935713700e-03 0.0000e+00 0.0000e+00
       11 -1    0    0    0    0 -5.6669588773e-20 -2.9192611996e-19 +1.2836919278e-16 5.1100000000e-04 5.1099893000e-04 0.0000e+00 1.0000e+00
       50  1    1    2    0    0 -2.2387971377e-03 +8.1986078596e-03 +1.5280861755e+00 1.5281179682e+00 4.9935713700e-03 0.0000e+00 0.0000e+00
       11  1    1    2    0    0 +1.4983367879e-03 -1.2012994404e-02 +1.4922081487e-01 1.4971195596e-01 5.1099893000e-04 0.0000e+00 1.0000e+00
<vert_displacement>
367.34962683992774
</vert_displacement>
</event>
<event>
 4   1200 +8.6263000e+09 1.23612000e-02 7.81665300e-03            nan
       50 -1    0    0    0    0 +9.4129999503e-03 -3.1909570114e-02 +1.2615582984e+01 1.2615627840e+01 4.9935713700e-03 0.0000e+00 0.0000e+00
       11 -1    0    0    0    0 +2.4333653895e-19 -8.2489794878e-19 +3.2612687946e-16 5.1100000000e-04 5.1099893000e-04 0.0000e+00 1.0000e+00
       50  1    1    2    0    0 +1.8068197895e-02 -3.8752946205e-02 +1.2489173972e+01 1.2489248164e+01 4.9935713700e-03 0.0000e+00 0.0000e+00
       11  1    1    2    0    0 -8.6551979447e-03 +6.8433760905e-03 +1.2640901212e-01 1.2689067623e-01 5.1099893000e-04 0.0000e+00 1.0000e+00
<vert_displacement>
106.29416710116109
</vert_displacement>
</event>
<event>
 4   1200 +8.6263000e+09 1.48152200e-02 7.81665300e-03            nan
       50 -1    0    0    0    0 -4.8827771218e-02 -2.9766720452e-02 +1.4723859070e+01 1.4723970968e+01 4.9935713700e-03 0.0000e+00 0.0000e+00
       11 -1    0    0    0    0 -2.7612991979e-19 -1.6833621371e-19 +8.3266098834e-17 5.1100000000e-04 5.1099893000e-04 0.0000e+00 1.0000e+00
       50  1    1    2    0    0 -4.0384745673e-02 -4.0938019815e-02 +1.4530957994e+01 1.4531072638e+01 4.9935713700e-03 0.0000e+00 0.0000e+00
       11  1    1    2    0    0 -8.4430255451e-03 +1.1171299363e-02 +1.9290107639e-01 1.9340933018e-01 5.1099893000e-04 0.0000e+00 1.0000e+00
<vert_displacement>
418.07376752835211
</vert_displacement>
</event>
<event>
 4   1200 +8.6263000e+09 7.93737800e-03 7.81665300e-03            nan
       50 -1    0    0    0    0 -1.5908686513e-02 +8.6608766960e-03 +4.7564749022e+00 4.7565120128e+00 4.9935713700e-03 0.0000e+00 0.0000e+00
       11 -1    0    0    0    0 +1.9726731718e-18 -1.0739465567e-18 -5.8980170516e-16 5.1100000000e-04 5.1099893000e-04 0.0000e+00 1.0000e+00
       50  1    1    2    0    0 -1.2653814821e-02 +3.2752349738e-03 +4.7189466019e+00 4.7189673461e+00 4.9935713700e-03 0.0000e+00 0.0000e+00
       11  1    1    2    0    0 -3.2548716914e-03 +5.3856417222e-03 +3.7528300352e-02 3.8055666776e-02 5.1099893000e-04 0.0000e+00 1.0000e+00
<vert_displacement>
415.40223564306990
</vert_displacement>
</event>
<event>
 4   1200 +8.6263000e+09 1.04583100e-02 7.81665300e-03            nan
       50 -1    0    0    0    0 +1.1977748393e-02 -6.4847846023e-03 +4.0847964154e+00 4.0848221760e+00 4.9935713700e-03 0.0000e+00 0.0000e+00
       11 -1    0    0    0    0 -1.6073841951e-18 +8.7024204685e-19 -5.4816957100e-16 5.1100000000e-04 5.1099893000e-04 0.0000e+00 1.0000e+00
       50  1    1    2    0    0 +5.8026054332e-03 -1.3372409566e-02 +4.0004164001e+00 4.0004460753e+00 4.9935713700e-03 0.0000e+00 0.0000e+00
       11  1    1    2    0    0 +6.1751429598e-03 +6.8876249636e-03 +8.4380015308e-02 8.4887100737e-02 5.1099893000e-04 0.0000e+00 1.0000e+00
<vert_displacement>
250.71682834067190
</vert_displacement>
</event>
<event>
 4   1200 +8.6263000e+09 5.78739200e-03 7.81665300e-03            nan
       50 -1    0    0    0    0 +2.9738683958e-02 +1.7300759030e-02 +1.7122764691e+01 1.7122799984e+01 4.9935713700e-03 0.0000e+00 0.0000e+00
       11 -1    0    0    0    0 -6.2667240481e-19 -3.6457256421e-19 -3.6082175462e-16 5.1100000000e-04 5.1099893000e-04 0.0000e+00 1.0000e+00
       50  1    1    2    0    0 +2.6807929044e-02 +1.7060176017e-02 +1.7114391729e+01 1.7114421956e+01 4.9935713700e-03 0.0000e+00 0.0000e+00
       11  1    1    2    0    0 +2.9307549138e-03 +2.4058301338e-04 +8.3729621135e-03 8.8890280128e-03 5.1099893000e-04 0.0000e+00 1.0000e+00
<vert_displacement>
24.879591471684861
</vert_displacement>
</event>
<event>
 4   1200 +8.6263000e+09 1.15864800e-02 7.81665300e-03            nan
       50 -1    0    0    0    0 +1.5341166149e-02 -8.5187267095e-03 +5.8228781290e+00 5.8229067106e+00 4.9935713700e-03 0.0000e+00 0.0000e+00
       11 -1    0    0    0    0 +3.2906481878e-19 -1.8272491371e-19 +1.2489952313e-16 5.1100000000e-04 5.1099893000e-04 0.0000e+00 1.0000e+00
       50  1    1    2    0    0 +1.1168323559e-02 +1.3470575173e-03 +5.7138863688e+00 5.7138996243e+00 4.9935713700e-03 0.0000e+00 0.0000e+00
       11  1    1    2    0    0 +4.1728425907e-03 -9.8657842267e-03 +1.0899176022e-01 1.0951808631e-01 5.1099893000e-04 0.0000e+00 1.0000e+00
<vert_displacement>
278.64108844387005
</vert_displacement>
</event>
<event>
 4   1200 +8.6263000e+09 8.22509700e-03 7.81665300e-03            nan
       50 -1    0    0    0    0 +1.1945155912e-03 -1.5421733723e-02 +3.4618503426e+01 3.4618507242e+01 4.9935713700e-03 0.0000e+00 0.0000e+00
       11 -1    0    0    0    0 +7.6616748215e-20 -9.8915669106e-19 +2.2204458276e-15 5.1100000000e-04 5.1099893000e-04 0.0000e+00 1.0000e+00
       50  1    1    2    0    0 +5.4169611320e-03 -2.0390598089e-02 +3.4576652884e+01 3.4576659682e+01 4.9935713700e-03 0.0000e+00 0.0000e+00
       11  1    1    2    0    0 -4.2224455408e-03 +4.9688643660e-03 +4.1850541842e-02 4.2358560313e-02 5.1099893000e-04 0.0000e+00 1.0000e+00
<vert_displacement>
366.14585597426003
</vert_displacement>
</event>
<event>
 4   1200 +8.6263000e+09 3.13514700e-02 7.81665300e-03            nan
       50 -1    0    0    0    0 -8.8369423117e-03 -1.3487350491e-03 +5.3064730066e+00 5.3064828857e+00 4.9935713700e-03 0.0000e+00 0.0000e+00
       11 -1    0    0    0    0 +3.0044088972e-19 +4.5854679577e-20 -1.8041098551e-16 5.1100000000e-04 5.1099893000e-04 0.0000e+00 -1.0000e+00
       50  1    1    2    0    0 -3.2157247419e-02 -1.8797895850e-02 +4.0878930304e+00 4.0880657790e+00 4.9935713700e-03 0.0000e+00 0.0000e+00
       11  1    1    2    0    0 +2.3320305108e-02 +1.7449160801e-02 +1.2185799762e+00 1.2189281067e+00 5.1099893000e-04 0.0000e+00 -1.0000e+00
<vert_displacement>
291.31698221061470
</vert_displacement>
</event>
<event>
 4   1200 +8.6263000e+09 1.15019300e-02 7.81665300e-03            nan
       50 -1    0    0    0    0 -3.4704594482e-02 -1.7432280839e-02 +1.2780824436e+01 1.2780884418e+01 4.9935713700e-03 0.0000e+00 0.0000e+00
       11 -1    0    0    0    0 -1.0174430437e-18 -5.1106642047e-19 +3.7469854092e-16 5.1100000000e-04 5.1099893000e-04 0.0000e+00 1.0000e+00
       50  1    1    2    0    0 -3.2527758632e-02 -7.1001010480e-03 +1.2674912566e+01 1.2674957277e+01 4.9935713700e-03 0.0000e+00 0.0000e+00
       11  1    1    2    0    0 -2.1768358504e-03 -1.0332179791e-02 +1.0591186985e-01 1.0643814095e-01 5.1099893000e-04 0.0000e+00 1.0000e+00
<vert_displacement>
156.73322319539983
</vert_displacement>
</event>
<event>
 4   1200 +8.6263000e+09 1.79591600e-02 7.81665300e-03            nan
       50 -1    0    0    0    0 +4.4700928980e-02 +3.7778961419e-02 +2.2237040248e+01 2.2237117829e+01 4.9935713700e-03 0.0000e+00 0.0000e+00
       11 -1    0    0    0    0 -7.5322039239e-19 -6.3658373088e-19 -3.7469897300e-16 5.1100000000e-04 5.1099893000e-04 0.0000e+00 1.0000e+00
       50  1    1    2    0    0 +5.8962619164e-02 +2.8506805760e-02 +2.1941909133e+01 2.1942007441e+01 4.9935713700e-03 0.0000e+00 0.0000e+00
       11  1    1    2    0    0 -1.4261690184e-02 +9.2721556590e-03 +2.9513111477e-01 2.9562138742e-01 5.1099893000e-04 0.0000e+00 1.0000e+00
<vert_displacement>
476.79175175297263
</vert_displacement>
</event>
<event>
 4   1200 +8.6263000e+09 5.94330300e-03 7.81665300e-03            nan
       50 -1    0    0    0    0 -3.3519999152e-02 +5.6909168934e-03 +1.6607147639e+01 1.6607183194e+01 4.9935713700e-03 0.0000e+00 0.0000e+00
       11 -1    0    0    0    0 -4.1736358432e-18 +7.0858637612e-19 +2.0677860499e-15 5.1100000000e-04 5.1099893000e-04 0.0000e+00 1.0000e+00
       50  1    1    2    0    0 -3.6721394715e-02 +5.6082598437e-03 +1.6596971136e+01 1.6597013458e+01 4.9935713700e-03 0.0000e+00 0.0000e+00
       11  1    1    2    0    0 +3.2013955631e-03 +8.2657049659e-05 +1.0176503764e-02 1.0680735672e-02 5.1099893000e-04 0.0000e+00 1.0000e+00
<vert_displacement>
336.34777819830805
</vert_displacement>
</event>
<event>
 4   1200 +8.6263000e+09 1.64364600e-02 7.81665300e-03            nan
       50 -1    0    0    0    0 -3.2150046312e-02 -2.2495892962e-02 +1.6354226049e+01 1.6354273884e+01 4.9935713700e-03 0.0000e+00 0.0000e+00
       11 -1    0    0    0    0 +2.4826299575e-18 +1.7371352205e-18 -1.2628750555e-15 5.1100000000e-04 5.1099893000e-04 0.0000e+00 1.0000e+00
       50  1    1    2    0    0 -3.7905224762e-02 -3.6525977402e-02 +1.6110611199e+01 1.6110697970e+01 4.9935713700e-03 0.0000e+00 0.0000e+00
       11  1    1    2    0    0 +5.7551784505e-03 +1.4030084440e-02 +2.4361485033e-01 2.4408691437e-01 5.1099893000e-04 0.0000e+00 1.0000e+00
<vert_displacement>
408.52676200586609
</vert_displacement>
</event>
<event>
 4   1200 +8.6263000e+09 1.11973800e-02 7.81665300e-03            nan
       50 -1    0    0    0    0 -1.0704759390e-02 -9.1230226155e-03 +4.5729287340e+00 4.5729530900e+00 4.9935713700e-03 0.0000e+00 0.0000e+00
       11 -1    0    0    0    0 +1.9166935314e-18 +1.6334826218e-18 -8.1878560787e-16 5.1100000000e-04 5.1099893000e-04 0.0000e+00 1.0000e+00
       50  1    1    2    0    0 -1.7265513025e-02 -1.6288518722e-02 +4.4723832404e+00 4.4724490158e+00 4.9935713700e-03 0.0000e+00 0.0000e+00
       11  1    1    2    0    0 +6.5607536352e-03 +7.1654961063e-03 +1.0054549362e-01 1.0101507427e-01 5.1099893000e-04 0.0000e+00 1.0000e+00
<vert_displacement>
57.665620805222900
</vert_displacement>
</event>
<event>
 4   1200 +8.6263000e+09 4.80697400e-02 7.81665300e-03            nan
       50 -1    0    0    0    0 +5.3166626297e-02 +4.6676520623e-02 +2.4553375532e+01 2.4553477968e+01 4.9935713700e-03 0.0000e+00 0.0000e+00
       11 -1    0    0    0    0 -9.0150386159e-20 -7.9145634242e-20 -4.1633190591e-17 5.1100000000e-04 5.1099893000e-04 0.0000e+00 1.0000e+00
       50  1    1    2    0    0 +1.4975925963e-02 +7.1614778535e-03 +2.2064314553e+01 2.2064321363e+01 4.9935713700e-03 0.0000e+00 0.0000e+00
       11  1    1    2    0    0 +3.8190700333e-02 +3.9515042770e-02 +2.4890609792e+00 2.4896676058e+00 5.1099893000e-04 0.0000e+00 1.0000e+00
<vert_displacement>
125.87906522161673
</vert_displacement>
</event>
<event>
 4   1200 +8.6263000e+09 3.06021200e-02 7.81665300e-03            nan
       50 -1    0    0    0    0 -1.2297531311e-01 -8.0139502557e-02 +3.9608582037e+01 3.9608854328e+01 4.9935713700e-03 0.0000e+00 0.0000e+00
       11 -1    0    0    0    0 +7.9710884987e-18 +5.1945309263e-18 -2.5673731153e-15 5.1100000000e-04 5.1099893000e-04 0.0000e+00 1.0000e+00
       50  1    1    2    0    0 -9.0459551128e-02 -7.2762896173e-02 +3.8695690849e+01 3.8695865316e+01 4.9935713700e-03 0.0000e+00 0.0000e+00
       11  1    1    2    0    0 -3.2515761981e-02 -7.3766063841e-03 +9.1289118855e-01 9.1350001223e-01 5.1099893000e-04 0.0000e+00 1.0000e+00
<vert_displacement>
176.78103539158548
</vert_displacement>
</event>
<event>
 4   1200 +8.6263000e+09 4.64750700e-02 7.81665300e-03            nan
       50 -1    0    0    0    0 -4.7102031839e-02 -1.0580314887e-03 +1.6295817336e+01 1.6295886208e+01 4.9935713700e-03 0.0000e+00 0.0000e+00
       11 -1    0    0    0    0 +3.1689034899e-18 +7.1181635821e-20 -1.0963406548e-15 5.1100000000e-04 5.1099893000e-04 0.0000e+00 1.0000e+00
       50  1    1    2    0    0 -6.9208904988e-02 +3.4894139279e-02 +1.3834296792e+01 1.3834514814e+01 4.9935713700e-03 0.0000e+00 0.0000e+00
       11  1    1    2    0    0 +2.2106873148e-02 -3.5952170767e-02 +2.4615205441e+00 2.4618823941e+00 5.1099893000e-04 0.0000e+00 1.0000e+00
<vert_displacement>
77.153461271091516
</vert_displacement>
</event>
<event>
 4   1200 +8.6263000e+09 1.61124900e-02 7.81665300e-03            nan
       50 -1    0    0    0    0 -1.5657176408e-02 -6.8730743657e-03 +9.9137988263e+00 9.9138148303e+00 4.9935713700e-03 0.0000e+00 0.0000e+00
       11 -1    0    0    0    0 -1.3479322232e-18 -5.9170556481e-19 +8.5348268066e-16 5.1100000000e-04 5.1099893000e-04 0.0000e+00 1.0000e+00
       50  1    1    2    0    0 -1.5890455900e-02 -2.2017202759e-02 +9.6785557979e+00 9.6785951735e+00 4.9935713700e-03 0.0000e+00 0.0000e+00
       11  1    1    2    0    0 +2.3327949173e-04 +1.5144128393e-02 +2.3524302836e-01 2.3573065680e-01 5.1099893000e-04 0.0000e+00 1.0000e+00
<vert_displacement>
152.55150538651802
</vert_displacement>
</event>
<event>
 4   1200 +8.6263000e+09 2.67358900e-02 7.81665300e-03            nan
       50 -1    0    0    0    0 +7.6821553766e-02 +8.5443857200e-04 +2.6785076496e+01 2.6785187140e+01 4.9935713700e-03 0.0000e+00 0.0000e+00
       11 -1    0    0    0    0 +6.4877821213e-18 +7.2159583078e-20 +2.2620701078e-15 5.1100000000e-04 5.1099893000e-04 0.0000e+00 1.0000e+00
       50  1    1    2    0    0 +9.2199360527e-02 +2.0538057465e-02 +2.6092049496e+01 2.6092220955e+01 4.9935713700e-03 0.0000e+00 0.0000e+00
       11  1    1    2    0    0 -1.5377806761e-02 -1.9683618893e-02 +6.9302700077e-01 6.9347718543e-01 5.1099893000e-04 0.0000e+00 1.0000e+00
<vert_displacement>
259.86319384237032
</vert_displacement>
</event>
<event>
 4   1200 +8.6263000e+09 5.50197800e-03 7.81665300e-03            nan
       50 -1    0    0    0    0 -5.0476786407e-02 -5.4708296236e-02 +2.3348670396e+01 2.3348789585e+01 4.9935713700e-03 0.0000e+00 0.0000e+00
       11 -1    0    0    0    0 -4.8602945948e-18 -5.2677370215e-18 +2.2481901998e-15 5.1100000000e-04 5.1099893000e-04 0.0000e+00 1.0000e+00
       50  1    1    2    0    0 -5.2743536453e-02 -5.4313277099e-02 +2.3343443971e+01 2.3343567276e+01 4.9935713700e-03 0.0000e+00 0.0000e+00
       11  1    1    2    0    0 +2.2667500456e-03 -3.9501913703e-04 +5.2264247061e-03 5.7333089053e-03 5.1099893000e-04 0.0000e+00 1.0000e+00
<vert_displacement>
173.58468769472799
</vert_displacement>
</event>
<event>
 4   1200 +8.6263000e+09 1.28453500e-02 7.81665300e-03            nan
       50 -1    0    0    0    0 +3.4778649589e-02 +2.0902696489e-02 +1.2671676143e+01 1.2671742094e+01 4.9935713700e-03 0.0000e+00 0.0000e+00
       11 -1    0    0    0    0 -3.0470996214e-18 -1.8313706631e-18 -1.1102173326e-15 5.1100000000e-04 5.1099893000e-04 0.0000e+00 1.0000e+00
       50  1    1    2    0    0 +4.0478973950e-02 +1.0520643479e-02 +1.2533100950e+01 1.2533171729e+01 4.9935713700e-03 0.0000e+00 0.0000e+00
       11  1    1    2    0    0 -5.7003243612e-03 +1.0382053010e-02 +1.3857519362e-01 1.3908136514e-01 5.1099893000e-04 0.0000e+00 1.0000e+00
<vert_displacement>
309.16268185527980
</vert_displacement>
</event>
<event>
 4   1200 +8.6263000e+09 2.19689700e-02 7.81665300e-03            nan
       50 -1    0    0    0    0 +8.5456105414e-03 +5.8183906783e-02 +2.2530927296e+01 2.2531004597e+01 4.9935713700e-03 0.0000e+00 0.0000e+00
       11 -1    0    0    0    0 +5.7899588720e-20 +3.9421692067e-19 +1.5265514589e-16 5.1100000000e-04 5.1099893000e-04 0.0000e+00 -1.0000e+00
       50  1    1    2    0    0 +2.8434909109e-02 +4.9574507241e-02 +2.2073798098e+01 2.2073872646e+01 4.9935713700e-03 0.0000e+00 0.0000e+00
       11  1    1    2    0    0 -1.9889298568e-02 +8.6093995413e-03 +4.5712919803e-01 4.5764295118e-01 5.1099893000e-04 0.0000e+00 -1.0000e+00
<vert_displacement>
438.96645821516466
</vert_displacement>
</event>
<event>
 4   1200 +8.6263000e+09 1.22061400e-02 7.81665300e-03            nan
       50 -1    0    0    0    0 +3.2569976314e-02 -1.9676170782e-02 +1.1789717770e+01 1.1789780235e+01 4.9935713700e-03 0.0000e+00 0.0000e+00
       11 -1    0    0    0    0 -4.6005871362e-19 +2.7793062333e-19 -1.6653258630e-16 5.1100000000e-04 5.1099893000e-04 0.0000e+00 1.0000e+00
       50  1    1    2    0    0 +2.1566783629e-02 -1.6258153491e-02 +1.1667085382e+01 1.1667117712e+01 4.9935713700e-03 0.0000e+00 0.0000e+00
       11  1    1    2    0    0 +1.1003192685e-02 -3.4180172906e-03 +1.2263238803e-01 1.2317352315e-01 5.1099893000e-04 0.0000e+00 1.0000e+00
<vert_displacement>
428.91076089047721
</vert_displacement>
</event>
<event>
 4   1200 +8.6263000e+09 1.65436600e-02 7.81665300e-03            nan
       50 -1    0    0    0    0 +7.6689357581e-02 -8.6784322594e-02 +3.9435544502e+01 3.9435714877e+01 4.9935713700e-03 0.0000e+00 0.0000e+00
       11 -1    0    0    0    0 -1.2954088670e-18 +1.4659293616e-18 -6.6613094220e-16 5.1100000000e-04 5.1099893000e-04 0.0000e+00 1.0000e+00
       50  1    1    2    0    0 +6.0445676969e-02 -8.6627170010e-02 +3.9190648029e+01 3.9190790701e+01 4.9935713700e-03 0.0000e+00 0.0000e+00
       11  1    1    2    0    0 +1.6243680612e-02 -1.5715258398e-04 +2.4489647314e-01 2.4543517582e-01 5.1099893000e-04 0.0000e+00 1.0000e+00
<vert_displacement>
0.52804203703839414
</vert_displacement>
</event>
<event>
 4   1200 +8.6263000e+09 5.50847900e-03 7.81665300e-03            nan
       50 -1    0    0    0    0 -9.3875123539e-03 -3.3530956206e-02 +1.8593704947e+01 1.8593738221e+01 4.9935713700e-03 0.0000e+00 0.0000e+00
       11 -1    0    0    0    0 -6.3759581830e-19 -2.2774081838e-18 +1.2628764761e-15 5.1100000000e-04 5.1099893000e-04 0.0000e+00 1.0000e+00
       50  1    1    2    0    0 -7.0693719708e-03 -3.3736344817e-02 +1.8588412900e+01 1.8588445530e+01 4.9935713700e-03 0.0000e+00 0.0000e+00
       11  1    1    2    0    0 -2.3181403831e-03 +2.0538861046e-04 +5.2920461883e-03 5.8036912463e-03 5.1099893000e-04 0.0000e+00 1.0000e+00
<vert_displacement>
413.57616584302144
</vert_displacement>
</event>
<event>
 4   1200 +8.6263000e+09 9.73575500e-03 7.81665300e-03            nan
       50 -1    0    0    0    0 -2.9721643865e-04 -9.4142174357e-03 +1.0182593684e+01 1.0182599265e+01 4.9935713700e-03 0.0000e+00 0.0000e+00
       11 -1    0    0    0    0 -5.4887539641e-20 -1.7385419025e-18 +1.8804394435e-15 5.1100000000e-04 5.1099893000e-04 0.0000e+00 1.0000e+00
       50  1    1    2    0    0 -7.0287102776e-03 -4.3999287098e-03 +1.0113782924e+01 1.0113787556e+01 4.9935713700e-03 0.0000e+00 0.0000e+00
       11  1    1    2    0    0 +6.7314938389e-03 -5.0142887259e-03 +6.8810759945e-02 6.9322708436e-02 5.1099893000e-04 0.0000e+00 1.0000e+00
<vert_displacement>
53.645678463129833
</vert_displacement>
</event>
<event>
 4   1200 +8.6263000e+09 1.67178500e-02 7.81665300e-03            nan
       50 -1    0    0    0    0 +1.8844844477e-02 +6.5215756416e-03 +1.2423923691e+01 1.2423940698e+01 4.9935713700e-03 0.0000e+00 0.0000e+00
       11 -1    0    0    0    0 -9.8935311094e-19 -3.4238229756e-19 -6.5225518677e-16 5.1100000000e-04 5.1099893000e-04 0.0000e+00 1.0000e+00
       50  1    1    2    0    0 +2.9719537895e-03 +1.0221879624e-02 +1.2169648861e+01 1.2169654541e+01 4.9935713700e-03 0.0000e+00 0.0000e+00
       11  1    1    2    0    0 +1.5872890687e-02 -3.7003039826e-03 +2.5427483028e-01 2.5479715724e-01 5.1099893000e-04 0.0000e+00 1.0000e+00
<vert_displacement>
131.62214127396228
</vert_displacement>
</event>
<event>
 4   1200 +8.6263000e+09 1.71300700e-02 7.81665300e-03            nan
       50 -1    0    0    0    0 +5.5998575671e-04 +1.2900377468e-03 +1.4231873344e+00 1.4231967897e+00 4.9935713700e-03 0.0000e+00 0.0000e+00
       11 -1    0    0    0    0 +1.6381595434e-20 +3.7738239249e-20 +4.1633343097e-17 5.1100000000e-04 5.1099893000e-04 0.0000e+00 1.0000e+00
       50  1    1    2    0    0 +1.6342912433e-02 -2.9044529651e-03 +1.0724762444e+00 1.0726163141e+00 4.9935713700e-03 0.0000e+00 0.0000e+00
       11  1    1    2    0    0 -1.5782926676e-02 +4.1944907119e-03 +3.5071108999e-01 3.5109147567e-01 5.1099893000e-04 0.0000e+00 1.0000e+00
<vert_displacement>
200.20961105481672
</vert_displacement>
</event>
<event>
 4   1200 +8.6263000e+09 5.97237600e-03 7.81665300e-03            nan
       50 -1    0    0    0    0 +2.2940151801e-03 +7.3218757978e-03 +3.2460923478e+00 3.2461052568e+00 4.9935713700e-03 0.0000e+00 0.0000e+00
       11 -1    0    0    0    0 +1.2504451053e-19 +3.9910824621e-19 +1.7694130025e-16 5.1100000000e-04 5.1099893000e-04 0.0000e+00 1.0000e+00
       50  1    1    2    0    0 +5.5626221365e-03 +7.2668607023e-03 +3.2355515388e+00 3.2355683343e+00 4.9935713700e-03 0.0000e+00 0.0000e+00
       11  1    1    2    0    0 -3.2686069564e-03 +5.5015095512e-05 +1.0540808940e-02 1.1047922480e-02 5.1099893000e-04 0.0000e+00 1.0000e+00
<vert_displacement>
302.57965215148079
</vert_displacement>
</event>
<event>
 4   1200 +8.6263000e+09 1.81952900e-02 7.81665300e-03            nan
       50 -1    0    0    0    0 +2.4247497609e-02 -8.3807906663e-02 +4.8605165802e+01 4.8605244360e+01 4.9935713700e-03 0.0000e+00 0.0000e+00
       11 -1    0    0    0    0 -3.0184954719e-18 +1.0432985327e-17 -6.0507057367e-15 5.1100000000e-04 5.1099893000e-04 0.0000e+00 1.0000e+00
       50  1    1    2    0    0 +1.0906010053e-02 -7.1793557044e-02 +4.8303776465e+01 4.8303831308e+01 4.9935713700e-03 0.0000e+00 0.0000e+00
       11  1    1    2    0    0 +1.3341487556e-02 -1.2014349619e-02 +3.0138933644e-01 3.0192405192e-01 5.1099893000e-04 0.0000e+00 1.0000e+00
<vert_displacement>
172.22074596272364
</vert_displacement>
</event>
<event>
 4   1200 +8.6263000e+09 6.91851900e-03 7.81665300e-03            nan
       50 -1    0    0    0    0 -3.7438194145e-03 -2.4457091600e-03 +1.1508595508e+00 1.1508790723e+00 4.9935713700e-03 0.0000e+00 0.0000e+00
       11 -1    0    0    0    0 -1.0157622024e-19 -6.6356270103e-20 +3.1224786844e-17 5.1100000000e-04 5.1099893000e-04 0.0000e+00 1.0000e+00
       50  1    1    2    0    0 +1.0969687016e-03 -2.8582820577e-03 +1.1279618113e+00 1.1279770196e+00 4.9935713700e-03 0.0000e+00 0.0000e+00
       11  1    1    2    0    0 -4.8407881161e-03 +4.1257289776e-04 +2.2897739469e-02 2.3413052741e-02 5.1099893000e-04 0.0000e+00 1.0000e+00
<vert_displacement>
125.49433972809641
</vert_displacement>
</event>
<event>
 4   1200 +8.6263000e+09 7.90750800e-03 7.81665300e-03            nan
       50 -1    0    0    0    0 +1.3495206686e-03 +4.6381774946e-03 +1.2484093676e+01 1.2484095609e+01 4.9935713700e-03 0.0000e+00 0.0000e+00
       11 -1    0    0    0    0 +7.7259156258e-20 +2.6553256141e-19 +7.1470601860e-16 5.1100000000e-04 5.1099893000e-04 0.0000e+00 1.0000e+00
       50  1    1    2    0    0 +7.4699874802e-03 +4.9142661424e-03 +1.2447198465e+01 1.2447202678e+01 4.9935713700e-03 0.0000e+00 0.0000e+00
       11  1    1    2    0    0 -6.1204668116e-03 -2.7608864783e-04 +3.6895211055e-02 3.7403931045e-02 5.1099893000e-04 0.0000e+00 1.0000e+00
<vert_displacement>
258.96613748321408
</vert_displacement>
</event>
<event>
 4   1200 +8.6263000e+09 7.11785100e-03 7.81665300e-03            nan
       50 -1    0    0    0    0 +8.8131199796e-04 +9.1781395095e-05 +2.4338497672e+00 2.4338550512e+00 4.9935713700e-03 0.0000e+00 0.0000e+00
       11 -1    0    0    0    0 +1.1181141526e-19 +1.1644239161e-20 +3.0878075826e-16 5.1100000000e-04 5.1099893000e-04 0.0000e+00 1.0000e+00
       50  1    1    2    0    0 -2.8084222137e-03 -3.3994260747e-03 +2.4084029493e+00 2.4084121627e+00 4.9935713700e-03 0.0000e+00 0.0000e+00
       11  1    1    2    0    0 +3.6897342117e-03 +3.4912074698e-03 +2.5446817904e-02 2.5953888524e-02 5.1099893000e-04 0.0000e+00 1.0000e+00
<vert_displacement>
115.60973546151908
</vert_displacement>
</event>
<event>
 4   1200 +8.6263000e+09 2.69924300e-02 7.81665300e-03            nan
       50 -1    0    0    0    0 -8.6762011828e-03 -1.1480313255e-02 +1.4052308481e+01 1.4052316737e+01 4.9935713700e-03 0.0000e+00 0.0000e+00
       11 -1    0    0    0    0 -3.4273775307e-19 -4.5350916683e-19 +5.5511122125e-16 5.1100000000e-04 5.1099893000e-04 0.0000e+00 -1.0000e+00
       50  1    1    2    0    0 +1.3972554759e-02 +3.6317110509e-03 +1.3326215976e+01 1.3326224731e+01 4.9935713700e-03 0.0000e+00 0.0000e+00
       11  1    1    2    0    0 -2.2648755942e-02 -1.5112024306e-02 +7.2609250565e-01 7.2660300529e-01 5.1099893000e-04 0.0000e+00 -1.0000e+00
<vert_displacement>
5.1881344251915937
</vert_displacement>
</event>
<event>
 4   1200 +8.6263000e+09 1.02084500e-02 7.81665300e-03            nan
       50 -1    0    0    0    0 +1.6037560495e-02 +6.7005738729e-03 +1.8411871111e+01 1.8411879992e+01 4.9935713700e-03 0.0000e+00 0.0000e+00
       11 -1    0    0    0    0 +1.7165196335e-18 +7.1717058292e-19 +1.9706449906e-15 5.1100000000e-04 5.1099893000e-04 0.0000e+00 1.0000e+00
       50  1    1    2    0    0 +2.4246150180e-02 +9.9550693247e-03 +1.8333960376e+01 1.8333979792e+01 4.9935713700e-03 0.0000e+00 0.0000e+00
       11  1    1    2    0    0 -8.2085896849e-03 -3.2544954518e-03 +7.7910734116e-02 7.8411200065e-02 5.1099893000e-04 0.0000e+00 1.0000e+00
<vert_displacement>
105.11966263248935
</vert_displacement>
</event>
<event>
 4   1200 +8.6263000e+09 2.96338700e-02 7.81665300e-03            nan
       50 -1    0    0    0    0 +2.3358191021e-02 -2.4345181450e-02 +1.2334193648e+01 1.2334240802e+01 4.9935713700e-03 0.0000e+00 0.0000e+00
       11 -1    0    0    0    0 -1.2220810620e-18 +1.2737195776e-18 -6.4531471886e-16 5.1100000000e-04 5.1099893000e-04 0.0000e+00 1.0000e+00
       50  1    1    2    0    0 -7.1145786163e-03 -1.7498086706e-02 +1.1433444712e+01 1.1433461405e+01 4.9935713700e-03 0.0000e+00 0.0000e+00
       11  1    1    2    0    0 +3.0472769638e-02 -6.8470947441e-03 +9.0074893603e-01 9.0129039675e-01 5.1099893000e-04 0.0000e+00 1.0000e+00
<vert_displacement>
372.51376396169019
</vert_displacement>
</event>
<event>
 4   1200 +8.6263000e+09 6.55661900e-03 7.81665300e-03            nan
       50 -1    0    0    0    0 +7.7894442650e-02 +5.4841770862e-02 +2.3646373458e+01 2.3646565878e+01 4.9935713700e-03 0.0000e+00 0.0000e+00
       11 -1    0    0    0    0 +3.3371944181e-18 +2.3495598065e-18 +1.0130702888e-15 5.1100000000e-04 5.1099893000e-04 0.0000e+00 1.0000e+00
       50  1    1    2    0    0 +7.3608998248e-02 +5.4371854891e-02 +2.3628710045e+01 2.3628887784e+01 4.9935713700e-03 0.0000e+00 0.0000e+00
       11  1    1    2    0    0 +4.2854444016e-03 +4.6991597082e-04 +1.7663412410e-02 1.8189093233e-02 5.1099893000e-04 0.0000e+00 1.0000e+00
<vert_displacement>
249.84710014370069
</vert_displacement>
</event>
<event>
 4   1200 +8.6263000e+09 1.76068400e-02 7.81665300e-03            nan
       50 -1    0    0    0    0 -2.1410509675e-02 +2.4692107231e-03 +9.4081061104e+00 9.4081321221e+00 4.9935713700e-03 0.0000e+00 0.0000e+00
       11 -1    0    0    0    0 -1.6580713128e-18 +1.9122045797e-19 +7.2858194814e-16 5.1100000000e-04 5.1099893000e-04 0.0000e+00 1.0000e+00
       50  1    1    2    0    0 -1.5636375189e-02 -1.3695383087e-02 +9.1203543262e+00 9.1203793797e+00 4.9935713700e-03 0.0000e+00 0.0000e+00
       11  1    1    2    0    0 -5.7741344860e-03 +1.6164593811e-02 +2.8775178419e-01 2.8826374234e-01 5.1099893000e-04 0.0000e+00 1.0000e+00
<vert_displacement>
230.43886688498588
</vert_displacement>
</event>
<event>
 4   1200 +8.6263000e+09 1.28211100e-02 7.81665300e-03            nan
       50 -1    0    0    0    0 -2.2236758855e-02 +8.3724547220e-03 +6.4108289413e+00 6.4108749186e+00 4.9935713700e-03 0.0000e+00 0.0000e+00
       11 -1    0    0    0    0 +3.3214188661e-18 -1.2505612554e-18 -9.5756078178e-16 5.1100000000e-04 5.1099893000e-04 0.0000e+00 1.0000e+00
       50  1    1    2    0    0 -1.3264510867e-02 +1.6399546481e-02 +6.2713473922e+00 6.2713848504e+00 4.9935713700e-03 0.0000e+00 0.0000e+00
       11  1    1    2    0    0 -8.9722479880e-03 -8.0270917593e-03 +1.3948154906e-01 1.4000106815e-01 5.1099893000e-04 0.0000e+00 1.0000e+00
<vert_displacement>
228.91361450228661
</vert_displacement>
</event>
<event>
 4   1200 +8.6263000e+09 1.55819200e-02 7.81665300e-03            nan
       50 -1    0    0    0    0 -2.1405918077e-02 +4.1890139075e-04 +9.2948109632e+00 9.2948369628e+00 4.9935713700e-03 0.0000e+00 0.0000e+00
       11 -1    0    0    0    0 +1.0227332287e-18 -2.0014295594e-20 -4.4408803173e-16 5.1100000000e-04 5.1099893000e-04 0.0000e+00 1.0000e+00
       50  1    1    2    0    0 -6.3354530843e-03 +2.7844150230e-03 +9.0765211695e+00 9.0765251813e+00 4.9935713700e-03 0.0000e+00 0.0000e+00
       11  1    1    2    0    0 -1.5070464993e-02 -2.3655136323e-03 +2.1828979368e-01 2.1882278153e-01 5.1099893000e-04 0.0000e+00 1.0000e+00
<vert_displacement>
12.019722944646619
</vert_displacement>
</event>
<event>
 4   1200 +8.6263000e+09 8.10166800e-03 7.81665300e-03            nan
       50 -1    0    0    0    0 +8.7268578648e-03 -3.0514911810e-03 +5.2445214475e+00 5.2445319733e+00 4.9935713700e-03 0.0000e+00 0.0000e+00
       11 -1    0    0    0    0 +3.3484175314e-19 -1.1708299511e-19 +2.0122761056e-16 5.1100000000e-04 5.1099893000e-04 0.0000e+00 1.0000e+00
       50  1    1    2    0    0 +4.8832285276e-03 +2.1135221657e-03 +5.2043931705e+00 5.2043982862e+00 4.9935713700e-03 0.0000e+00 0.0000e+00
       11  1    1    2    0    0 +3.8436293373e-03 -5.1650133466e-03 +4.0128277039e-02 4.0644687075e-02 5.1099893000e-04 0.0000e+00 1.0000e+00
<vert_displacement>
282.44521394167577
</vert_displacement>
</event>
<event>
 4   1200 +8.6263000e+09 1.86631300e-02 7.81665300e-03            nan
       50 -1    0    0    0    0 +1.3942832483e-02 +1.3677694819e-02 +9.1337373124e+00 9.1337595605e+00 4.9935713700e-03 0.0000e+00 0.0000e+00
       11 -1    0    0    0    0 +3.9191643027e-19 +3.8446372602e-19 +2.5673848745e-16 5.1100000000e-04 5.1099893000e-04 0.0000e+00 1.0000e+00
       50  1    1    2    0    0 -1.2020366808e-03 +2.7489276553e-03 +8.8055140961e+00 8.8055160232e+00 4.9935713700e-03 0.0000e+00 0.0000e+00
       11  1    1    2    0    0 +1.5144869164e-02 +1.0928767164e-02 +3.2822321630e-01 3.2875453738e-01 5.1099893000e-04 0.0000e+00 1.0000e+00
<vert_displacement>
325.64812847855853
</vert_displacement>
</event>
<event>
 4   1200 +8.6263000e+09 1.71599800e-02 7.81665300e-03            nan
       50 -1    0    0    0    0 -3.9126170098e-02 +1.9109355237e-03 +1.4000239191e+01 1.4000294884e+01 4.9935713700e-03 0.0000e+00 0.0000e+00
       11 -1    0    0    0    0 -6.3023684770e-18 +3.0780983102e-19 +2.2551316912e-15 5.1100000000e-04 5.1099893000e-04 0.0000e+00 -1.0000e+00
       50  1    1    2    0    0 -2.7053194739e-02 -1.0014953169e-02 +1.3731362606e+01 1.3731393816e+01 4.9935713700e-03 0.0000e+00 0.0000e+00
       11  1    1    2    0    0 -1.2072975359e-02 +1.1925888693e-02 +2.6887658416e-01 2.6941206763e-01 5.1099893000e-04 0.0000e+00 -1.0000e+00
<vert_displacement>
60.652839883842233
</vert_displacement>
</event>
<event>
 4   1200 +8.6263000e+09 3.11788100e-02 7.81665300e-03            nan
       50 -1    0    0    0    0 -1.9394920701e-02 +3.1402020696e-02 +1.3991567406e+01 1.3991616978e+01 4.9935713700e-03 0.0000e+00 0.0000e+00
       11 -1    0    0    0    0 -5.7711402107e-20 +9.3439652128e-20 +4.1633218569e-17 5.1100000000e-04 5.1099893000e-04 0.0000e+00 1.0000e+00
       50  1    1    2    0    0 -4.8787256129e-02 +2.9017322118e-02 +1.2993370219e+01 1.2993495172e+01 4.9935713700e-03 0.0000e+00 0.0000e+00
       11  1    1    2    0    0 +2.9392335428e-02 +2.3846985777e-03 +9.9819718727e-01 9.9863280637e-01 5.1099893000e-04 0.0000e+00 1.0000e+00
<vert_displacement>
448.91427185843912
</vert_displacement>
</event>
<event>
 4   1200 +8.6263000e+09 9.32111500e-03 7.81665300e-03            nan
       50 -1    0    0    0    0 +1.0801972762e-03 -5.6634186732e-03 +3.0350634189e+00 3.0350730030e+00 4.9935713700e-03 0.0000e+00 0.0000e+00
       11 -1    0    0    0    0 +1.6793208643e-19 -8.8045927827e-19 +4.7184393412e-16 5.1100000000e-04 5.1099893000e-04 0.0000e+00 1.0000e+00
       50  1    1    2    0    0 +2.3354850535e-03 +2.2183983611e-03 +2.9731810045e+00 2.9731869428e+00 4.9935713700e-03 0.0000e+00 0.0000e+00
       11  1    1    2    0    0 -1.2552877774e-03 -7.8818170343e-03 +6.1882414449e-02 6.2397060228e-02 5.1099893000e-04 0.0000e+00 1.0000e+00
<vert_displacement>
184.04287524171147
</vert_displacement>
</event>
<event>
 4   1200 +8.6263000e+09 2.34993300e-02 7.81665300e-03            nan
       50 -1    0    0    0    0 +2.8085188532e-03 +3.4973079577e-02 +1.6429492442e+01 1.6429530664e+01 4.9935713700e-03 0.0000e+00 0.0000e+00
       11 -1    0    0    0    0 +9.2520305087e-20 +1.1521090516e-18 +5.4123249036e-16 5.1100000000e-04 5.1099893000e-04 0.0000e+00 1.0000e+00
       50  1    1    2    0    0 -1.1737174878e-02 +1.5995595098e-02 +1.5896250576e+01 1.5896263742e+01 4.9935713700e-03 0.0000e+00 0.0000e+00
       11  1    1    2    0    0 +1.4545693731e-02 +1.8977484479e-02 +5.3324186572e-01 5.3377792255e-01 5.1099893000e-04 0.0000e+00 1.0000e+00
<vert_displacement>
436.37288772363644
</vert_displacement>
</event>
<event>
 4   1200 +8.6263000e+09 7.47483600e-03 7.81665300e-03            nan
       50 -1    0    0    0    0 -5.2898789638e-03 -3.1869257696e-03 +3.4066977874e+00 3.4067070449e+00 4.9935713700e-03 0.0000e+00 0.0000e+00
       11 -1    0    0    0    0 +1.2929535006e-19 +7.7894917033e-20 -8.3266590028e-17 5.1100000000e-04 5.1099893000e-04 0.0000e+00 1.0000e+00
       50  1    1    2    0    0 -9.4052274724e-03 -6.8473162256e-03 +3.3761359634e+00 3.3761597005e+00 4.9935713700e-03 0.0000e+00 0.0000e+00
       11  1    1    2    0    0 +4.1153485085e-03 +3.6603904560e-03 +3.0561824013e-02 3.1058344427e-02 5.1099893000e-04 0.0000e+00 1.0000e+00
<vert_displacement>
490.79713403942162
</vert_displacement>
</event>
<event>
 4   1200 +8.6263000e+09 1.96745900e-02 7.81665300e-03            nan
       50 -1    0    0    0    0 +1.3457602524e-01 +9.3224884560e-02 +4.9096594219e+01 4.9096867420e+01 4.9935713700e-03 0.0000e+00 0.0000e+00
       11 -1    0    0    0    0 +1.1411833158e-19 +7.9053221173e-20 +4.1633131969e-17 5.1100000000e-04 5.1099893000e-04 0.0000e+00 1.0000e+00
       50  1    1    2    0    0 +1.4415054836e-01 +7.6710777375e-02 +4.8739639176e+01 4.8739912966e+01 4.9935713700e-03 0.0000e+00 0.0000e+00
       11  1    1    2    0    0 -9.5745231146e-03 +1.6514107185e-02 +3.5695504314e-01 3.5746545451e-01 5.1099893000e-04 0.0000e+00 1.0000e+00
<vert_displacement>
30.284528413495359
</vert_displacement>
</event>
<event>
 4   1200 +8.6263000e+09 2.89224600e-02 7.81665300e-03            nan
       50 -1    0    0    0    0 +2.3585826699e-02 -1.9503986202e-02 +1.6086307457e+01 1.6086337347e+01 4.9935713700e-03 0.0000e+00 0.0000e+00
       11 -1    0    0    0    0 -1.0784252914e-18 +8.9178947471e-19 -7.3552142259e-16 5.1100000000e-04 5.1099893000e-04 0.0000e+00 1.0000e+00
       50  1    1    2    0    0 +1.3973342161e-02 +8.7382806619e-03 +1.5248523626e+01 1.5248533350e+01 4.9935713700e-03 0.0000e+00 0.0000e+00
       11  1    1    2    0    0 +9.6124845375e-03 -2.8242266864e-02 +8.3778383095e-01 8.3831499689e-01 5.1099893000e-04 0.0000e+00 1.0000e+00
<vert_displacement>
33.167850652081746
</vert_displacement>
</event>
<event>
 4   1200 +8.6263000e+09 4.51919400e-02 7.81665300e-03            nan
       50 -1    0    0    0    0 -1.2081756658e-02 +6.4639611749e-02 +2.7371088678e+01 2.7371168126e+01 4.9935713700e-03 0.0000e+00 0.0000e+00
       11 -1    0    0    0    0 +2.9403446533e-19 -1.5731382628e-18 -6.6613189232e-16 5.1100000000e-04 5.1099893000e-04 0.0000e+00 1.0000e+00
       50  1    1    2    0    0 -3.6542627037e-02 +2.2542661445e-02 +2.5229453806e+01 2.5229490836e+01 4.9935713700e-03 0.0000e+00 0.0000e+00
       11  1    1    2    0    0 +2.4460870380e-02 +4.2096950304e-02 +2.1416348717e+00 2.1421882906e+00 5.1099893000e-04 0.0000e+00 1.0000e+00
<vert_displacement>
93.005970313691179
</vert_displacement>
</event>
<event>
 4   1200 +8.6263000e+09 9.67522200e-03 7.81665300e-03            nan
       50 -1    0    0    0    0 -1.0230071918e-02 +3.4242150013e-03 +4.8223585125e+00 4.8223731646e+00 4.9935713700e-03 0.0000e+00 0.0000e+00
       11 -1    0    0    0    0 -1.6486420611e-18 +5.5183432947e-19 +7.7715417262e-16 5.1100000000e-04 5.1099893000e-04 0.0000e+00 1.0000e+00
       50  1    1    2    0    0 -6.5124510459e-03 -4.1013331098e-03 +4.7542000276e+00 4.7542088796e+00 4.9935713700e-03 0.0000e+00 0.0000e+00
       11  1    1    2    0    0 -3.7176208722e-03 +7.5255481111e-03 +6.8158484901e-02 6.8675284952e-02 5.1099893000e-04 0.0000e+00 1.0000e+00
<vert_displacement>
108.38198214264075
</vert_displacement>
</event>
<event>
 4   1200 +8.6263000e+09 1.72015400e-02 7.81665300e-03            nan
       50 -1    0    0    0    0 -1.8884799373e-02 +4.7746677370e-02 +1.8372007620e+01 1.8372080048e+01 4.9935713700e-03 0.0000e+00 0.0000e+00
       11 -1    0    0    0    0 +2.9956674460e-19 -7.5739839344e-19 -2.9143240581e-16 5.1100000000e-04 5.1099893000e-04 0.0000e+00 1.0000e+00
       50  1    1    2    0    0 -3.0967887614e-02 +3.6175607711e-02 +1.8102946258e+01 1.8103009580e+01 4.9935713700e-03 0.0000e+00 0.0000e+00
       11  1    1    2    0    0 +1.2083088241e-02 +1.1571069659e-02 +2.6906136112e-01 2.6958146791e-01 5.1099893000e-04 0.0000e+00 1.0000e+00
<vert_displacement>
92.884674400023485
</vert_displacement>
</event>
<event>
 4   1200 +8.6263000e+09 1.47535800e-02 7.81665300e-03            nan
       50 -1    0    0    0    0 +3.1353759588e-02 -2.5073109165e-03 +1.0076784270e+01 1.0076834597e+01 4.9935713700e-03 0.0000e+00 0.0000e+00
       11 -1    0    0    0    0 +9.9314720815e-19 -7.9420422601e-20 +3.1918756462e-16 5.1100000000e-04 5.1099893000e-04 0.0000e+00 1.0000e+00
       50  1    1    2    0    0 +2.1632981338e-02 -1.2924221851e-02 +9.8845405172e+00 9.8845739004e+00 4.9935713700e-03 0.0000e+00 0.0000e+00
       11  1    1    2    0    0 +9.7207782505e-03 +1.0416910935e-02 +1.9224375269e-01 1.9277169692e-01 5.1099893000e-04 0.0000e+00 1.0000e+00
<vert_displacement>
242.78204697299114
</vert_displacement>
</event>
<event>
 4   1200 +8.6263000e+09 2.48090500e-02 7.81665300e-03            nan
       50 -1    0    0    0    0 +1.4333753742e-02 +5.2065116505e-03 +8.3074653427e+00 8.3074808408e+00 4.9935713700e-03 0.0000e+00 0.0000e+00
       11 -1    0    0    0    0 +2.1909476759e-18 +7.9582744376e-19 +1.2698154449e-15 5.1100000000e-04 5.1099893000e-04 0.0000e+00 1.0000e+00
       50  1    1    2    0    0 +3.0065247087e-02 -1.2734548380e-02 +7.6824082293e+00 7.6824792369e+00 4.9935713700e-03 0.0000e+00 0.0000e+00
       11  1    1    2    0    0 -1.5731493345e-02 +1.7941060030e-02 +6.2505711338e-01 6.2551260389e-01 5.1099893000e-04 0.0000e+00 1.0000e+00
<vert_displacement>
127.58903841279518
</vert_displacement>
</event>
<event>
 4   1200 +8.6263000e+09 5.61780900e-02 7.81665300e-03            nan
       50 -1    0    0    0    0 -3.0677580541e-02 -1.6574336408e-02 +1.2307847331e+01 1.2307897736e+01 4.9935713700e-03 0.0000e+00 0.0000e+00
       11 -1    0    0    0    0 -1.2798504588e-18 -6.9147148122e-19 +5.1347608828e-16 5.1100000000e-04 5.1099893000e-04 0.0000e+00 1.0000e+00
       50  1    1    2    0    0 -6.2167247796e-02 +2.1611104795e-02 +5.8688976698e+00 5.8692688301e+00 4.9935713700e-03 0.0000e+00 0.0000e+00
       11  1    1    2    0    0 +3.1489667255e-02 -3.8185441203e-02 +6.4389496615e+00 6.4391399062e+00 5.1099893000e-04 0.0000e+00 1.0000e+00
<vert_displacement>
411.94443316697328
</vert_displacement>
</event>
<event>
 4   1200 +8.6263000e+09 1.61689000e-02 7.81665300e-03            nan
       50 -1    0    0    0    0 -9.0024402041e-02 +2.8137435289e-02 +3.9000147863e+01 3.9000262234e+01 4.9935713700e-03 0.0000e+00 0.0000e+00
       11 -1    0    0    0    0 +7.3037821594e-18 -2.2828221373e-18 -3.1641263670e-15 5.1100000000e-04 5.1099893000e-04 0.0000e+00 1.0000e+00
       50  1    1    2    0    0 -8.8982729507e-02 +1.2599271607e-02 +3.8767360528e+01 3.8767465018e+01 4.9935713700e-03 0.0000e+00 0.0000e+00
       11  1    1    2    0    0 -1.0416725343e-03 +1.5538163682e-02 +2.3278733465e-01 2.3330821654e-01 5.1099893000e-04 0.0000e+00 1.0000e+00
<vert_displacement>
139.90264320768324
</vert_displacement>
</event>
<event>
 4   1200 +8.6263000e+09 1.60345000e-02 7.81665300e-03            nan
       50 -1    0    0    0    0 -3.1785931395e-02 -3.0684718091e-02 +3.2403715886e+01 3.2403746389e+01 4.9935713700e-03 0.0000e+00 0.0000e+00
       11 -1    0    0    0    0 -3.2671660452e-19 -3.1539761351e-19 +3.3306659781e-16 5.1100000000e-04 5.1099893000e-04 0.0000e+00 1.0000e+00
       50  1    1    2    0    0 -4.6486519218e-02 -2.7399952542e-02 +3.2174912336e+01 3.2174957972e+01 4.9935713700e-03 0.0000e+00 0.0000e+00
       11  1    1    2    0    0 +1.4700587823e-02 -3.2847655491e-03 +2.2880354953e-01 2.2929941640e-01 5.1099893000e-04 0.0000e+00 1.0000e+00
<vert_displacement>
430.77261551942831
</vert_displacement>
</event>
<event>
 4   1200 +8.6263000e+09 2.93301800e-02 7.81665300e-03            nan
       50 -1    0    0    0    0 +4.8916404950e-02 +9.5586196435e-03 +2.4945347914e+01 2.4945398206e+01 4.9935713700e-03 0.0000e+00 0.0000e+00
       11 -1    0    0    0    0 +2.2315066967e-18 +4.3605256289e-19 +1.1379763288e-15 5.1100000000e-04 5.1099893000e-04 0.0000e+00 1.0000e+00
       50  1    1    2    0    0 +7.4872091644e-02 +1.7763347851e-02 +2.4099208801e+01 2.4099332172e+01 4.9935713700e-03 0.0000e+00 0.0000e+00
       11  1    1    2    0    0 -2.5955686695e-02 -8.2047282075e-03 +8.4613911341e-01 8.4657703465e-01 5.1099893000e-04 0.0000e+00 1.0000e+00
<vert_displacement>
255.27373246422789
</vert_displacement>
</event>
<event>
 4   1200 +8.6263000e+09 2.59944400e-02 7.81665300e-03            nan
       50 -1    0    0    0    0 +2.9537928184e-02 -3.6073464484e-02 +1.9766841761e+01 1.9766897378e+01 4.9935713700e-03 0.0000e+00 0.0000e+00
       11 -1    0    0    0    0 +4.1890268960e-18 -5.1158873436e-18 +2.8033053392e-15 5.1100000000e-04 5.1099893000e-04 0.0000e+00 1.0000e+00
       50  1    1    2    0    0 +1.9188138207e-02 -5.8600227294e-02 +1.9108050039e+01 1.9108150183e+01 4.9935713700e-03 0.0000e+00 0.0000e+00
       11  1    1    2    0    0 +1.0349789977e-02 +2.2526762811e-02 +6.5879172197e-01 6.5925819468e-01 5.1099893000e-04 0.0000e+00 1.0000e+00
<vert_displacement>
354.63810268996036
</vert_displacement>
</event>
<event>
 4   1200 +8.6263000e+09 9.47091200e-03 7.81665300e-03            nan
       50 -1    0    0    0    0 -3.0945964269e-04 +1.7046385699e-03 +8.7824017527e-01 8.7825608041e-01 4.9935713700e-03 0.0000e+00 0.0000e+00
       11 -1    0    0    0    0 +1.5281294275e-20 -8.4176028234e-20 -4.3368002516e-17 5.1100000000e-04 5.1099893000e-04 0.0000e+00 1.0000e+00
       50  1    1    2    0    0 -8.2092766883e-04 +9.6004069213e-03 +8.0925290905e-01 8.0932567505e-01 4.9935713700e-03 0.0000e+00 0.0000e+00
       11  1    1    2    0    0 +5.1146802615e-04 -7.8957683514e-03 +6.8987266223e-02 6.9441405359e-02 5.1099893000e-04 0.0000e+00 1.0000e+00
<vert_displacement>
379.08934802689106
</vert_displacement>
</event>
<event>
 4   1200 +8.6263000e+09 1.10430700e-02 7.81665300e-03            nan
       50 -1    0    0    0    0 +2.5217639277e-02 -2.2822414607e-02 +1.1799112179e+01 1.1799162256e+01 4.9935713700e-03 0.0000e+00 0.0000e+00
       11 -1    0    0    0    0 +2.9660163211e-18 -2.6842978229e-18 +1.3877730152e-15 5.1100000000e-04 5.1099893000e-04 0.0000e+00 1.0000e+00
       50  1    1    2    0    0 +1.6148719803e-02 -1.8343608386e-02 +1.1703432622e+01 1.1703459204e+01 4.9935713700e-03 0.0000e+00 0.0000e+00
       11  1    1    2    0    0 +9.0689194743e-03 -4.4788062213e-03 +9.5679556854e-02 9.6214051600e-02 5.1099893000e-04 0.0000e+00 1.0000e+00
<vert_displacement>
123.15870579358341
</vert_displacement>
</event>
<event>
 4   1200 +8.6263000e+09 9.22094300e-03 7.81665300e-03            nan
       50 -1    0    0    0    0 +4.3040290100e-02 -3.8744670386e-02 +2.1736619243e+01 2.1736696958e+01 4.9935713700e-03 0.0000e+00 0.0000e+00
       11 -1    0    0    0    0 +1.6212646188e-18 -1.4594549228e-18 +8.1878657484e-16 5.1100000000e-04 5.1099893000e-04 0.0000e+00 1.0000e+00
       50  1    1    2    0    0 +4.9626961010e-02 -4.2532380536e-02 +2.1677641251e+01 2.1677740357e+01 4.9935713700e-03 0.0000e+00 0.0000e+00
       11  1    1    2    0    0 -6.5866709102e-03 +3.7877101501e-03 +5.8977991283e-02 5.9467600907e-02 5.1099893000e-04 0.0000e+00 1.0000e+00
<vert_displacement>
208.51945373296130
</vert_displacement>
</event>
<event>
 4   1200 +8.6263000e+09 1.50078800e-02 7.81665300e-03            nan
       50 -1    0    0    0    0 -4.1274623024e-03 -9.1153159198e-03 +4.4366004514e+00 4.4366145456e+00 4.9935713700e-03 0.0000e+00 0.0000e+00
       11 -1    0    0    0    0 +5.2934131423e-19 +1.1690266210e-18 -5.6898785297e-16 5.1100000000e-04 5.1099893000e-04 0.0000e+00 1.0000e+00
       50  1    1    2    0    0 -1.4315373423e-02 -1.8314374476e-02 +4.2309812184e+00 4.2310480205e+00 4.9935713700e-03 0.0000e+00 0.0000e+00
       11  1    1    2    0    0 +1.0187911121e-02 +9.1990585557e-03 +2.0561923303e-01 2.0607752503e-01 5.1099893000e-04 0.0000e+00 1.0000e+00
<vert_displacement>
410.91582382132373
</vert_displacement>
</event>
<event>
 4   1200 +8.6263000e+09 1.93315000e-02 7.81665300e-03            nan
       50 -1    0    0    0    0 +8.2479608497e-02 -3.6509848574e-02 +2.4109765619e+01 2.4109934861e+01 4.9935713700e-03 0.0000e+00 0.0000e+00
       11 -1    0    0    0    0 +4.5576612085e-18 -2.0174625415e-18 +1.3322583062e-15 5.1100000000e-04 5.1099893000e-04 0.0000e+00 -1.0000e+00
       50  1    1    2    0    0 +7.0695070755e-02 -5.1361160186e-02 +2.3763533015e+01 2.3763694201e+01 4.9935713700e-03 0.0000e+00 0.0000e+00
       11  1    1    2    0    0 +1.1784537742e-02 +1.4851311612e-02 +3.4623260362e-01 3.4675166000e-01 5.1099893000e-04 0.0000e+00 -1.0000e+00
<vert_displacement>
186.28347643706184
</vert_displacement>
</event>
<event>
 4   1200 +8.6263000e+09 1.50720400e-02 7.81665300e-03            nan
       50 -1    0    0    0    0 -3.4532342634e-03 +1.0084313718e-03 +1.4395638660e+00 1.4395770219e+00 4.9935713700e-03 0.0000e+00 0.0000e+00
       11 -1    0    0    0    0 +2.5799761639e-19 -7.5341801442e-20 -1.0755251968e-16 5.1100000000e-04 5.1099893000e-04 0.0000e+00 1.0000e+00
       50  1    1    2    0    0 -6.4790210490e-03 -1.2916718651e-02 +1.2016312039e+00 1.2017284657e+00 4.9935713700e-03 0.0000e+00 0.0000e+00
       11  1    1    2    0    0 +3.0257867856e-03 +1.3925150022e-02 +2.3793266214e-01 2.3835955618e-01 5.1099893000e-04 0.0000e+00 1.0000e+00
<vert_displacement>
322.90052864715614
</vert_displacement>
</event>
<event>
 4   1200 +8.6263000e+09 2.89658600e-02 7.81665300e-03            nan
       50 -1    0    0    0    0 +4.0659211299e-02 -2.6887007749e-02 +1.3044061029e+01 1.3044153064e+01 4.9935713700e-03 0.0000e+00 0.0000e+00
       11 -1    0    0    0    0 -2.9415230171e-18 +1.9451619849e-18 -9.4368298176e-16 5.1100000000e-04 5.1099893000e-04 0.0000e+00 1.0000e+00
       50  1    1    2    0    0 +3.2481876751e-02 -5.3123039663e-02 +1.2191629572e+01 1.2191789601e+01 4.9935713700e-03 0.0000e+00 0.0000e+00
       11  1    1    2    0    0 +8.1773345479e-03 +2.6236031915e-02 +8.5243145769e-01 8.5287446283e-01 5.1099893000e-04 0.0000e+00 1.0000e+00
<vert_displacement>
302.75690354423500
</vert_displacement>
</event>
<event>
 4   1200 +8.6263000e+09 8.28741600e-03 7.81665300e-03            nan
       50 -1    0    0    0    0 +2.0362920253e-02 +6.8033700379e-03 +6.7777296447e+00 6.7777654877e+00 4.9935713700e-03 0.0000e+00 0.0000e+00
       11 -1    0    0    0    0 -5.8371643145e-19 -1.9502305322e-19 -1.9428805458e-16 5.1100000000e-04 5.1099893000e-04 0.0000e+00 1.0000e+00
       50  1    1    2    0    0 +2.3293093011e-02 +8.9631254149e-04 +6.7346446764e+00 6.7346868690e+00 4.9935713700e-03 0.0000e+00 0.0000e+00
       11  1    1    2    0    0 -2.9301727582e-03 +5.9070574964e-03 +4.3084968333e-02 4.3589618682e-02 5.1099893000e-04 0.0000e+00 1.0000e+00
<vert_displacement>
371.60657513850788
</vert_displacement>
</event>
<event>
 4   1200 +8.6263000e+09 1.19177900e-02 7.81665300e-03            nan
       50 -1    0    0    0    0 +2.2478363318e-02 -9.0879936220e-02 +3.5142465043e+01 3.5142590096e+01 4.9935713700e-03 0.0000e+00 0.0000e+00
       11 -1    0    0    0    0 -3.1068423114e-19 +1.2560951485e-18 -4.8572084976e-16 5.1100000000e-04 5.1099893000e-04 0.0000e+00 1.0000e+00
       50  1    1    2    0    0 +1.5219859842e-02 -8.2491084836e-02 +3.5027535657e+01 3.5027636454e+01 4.9935713700e-03 0.0000e+00 0.0000e+00
       11  1    1    2    0    0 +7.2585034761e-03 -8.3888513844e-03 +1.1492938561e-01 1.1546464176e-01 5.1099893000e-04 0.0000e+00 1.0000e+00
<vert_displacement>
384.79342504470225
</vert_displacement>
</event>
<event>
 4   1200 +8.6263000e+09 7.97254900e-03 7.81665300e-03            nan
       50 -1    0    0    0    0 +4.7077672149e-02 +5.9861115091e-02 +3.0734216199e+01 3.0734310956e+01 4.9935713700e-03 0.0000e+00 0.0000e+00
       11 -1    0    0    0    0 +5.1017948309e-19 +6.4871331482e-19 +3.3306588490e-16 5.1100000000e-04 5.1099893000e-04 0.0000e+00 1.0000e+00
       50  1    1    2    0    0 +5.2796379998e-02 +6.2079934921e-02 +3.0696361436e+01 3.0696470021e+01 4.9935713700e-03 0.0000e+00 0.0000e+00
       11  1    1    2    0    0 -5.7187078493e-03 -2.2188198299e-03 +3.7854762879e-02 3.8351935720e-02 5.1099893000e-04 0.0000e+00 1.0000e+00
<vert_displacement>
375.76757989918156
</vert_displacement>
</event>
<event>
 4   1200 +8.6263000e+09 7.70844000e-03 7.81665300e-03            nan
       50 -1    0    0    0    0 -8.7030603610e-03 +9.7718502215e-03 +5.7685921123e+00 5.7686091154e+00 4.9935713700e-03 0.0000e+00 0.0000e+00
       11 -1    0    0    0    0 +6.0718255758e-19 -6.8174834641e-19 -4.0245481097e-16 5.1100000000e-04 5.1099893000e-04 0.0000e+00 1.0000e+00
       50  1    1    2    0    0 -1.3814946922e-02 +6.9167261895e-03 +5.7346435866e+00 5.7346665722e+00 4.9935713700e-03 0.0000e+00 0.0000e+00
       11  1    1    2    0    0 +5.1118865608e-03 +2.8551240320e-03 +3.3948525749e-02 3.4453543184e-02 5.1099893000e-04 0.0000e+00 1.0000e+00
<vert_displacement>
405.09238755199095
</vert_displacement>
</event>
<event>
 4   1200 +8.6263000e+09 8.74219600e-03 7.81665300e-03            nan
       50 -1    0    0    0    0 +4.3908776771e-02 -1.0487466467e-02 +1.2794516959e+01 1.2794597575e+01 4.9935713700e-03 0.0000e+00 0.0000e+00
       11 -1    0    0    0    0 +4.2863486467e-19 -1.0237802326e-19 +1.2489931281e-16 5.1100000000e-04 5.1099893000e-04 0.0000e+00 -1.0000e+00
       50  1    1    2    0    0 +5.0852277218e-02 -1.1360627532e-02 +1.2743907887e+01 1.2744015387e+01 4.9935713700e-03 0.0000e+00 0.0000e+00
       11  1    1    2    0    0 -6.9435004475e-03 +8.7316106590e-04 +5.0609071931e-02 5.1093188297e-02 5.1099893000e-04 0.0000e+00 -1.0000e+00
<vert_displacement>
30.685898935953350
</vert_displacement>
</event>
<event>
 4   1200 +8.6263000e+09 2.65932800e-02 7.81665300e-03            nan
       50 -1    0    0    0    0 +7.7800495072e-03 +1.4657147484e-02 +1.4822511632e+01 1.4822521762e+01 4.9935713700e-03 0.0000e+00 0.0000e+00
       11 -1    0    0    0    0 +5.9001839286e-19 +1.1115593281e-18 +1.1241001080e-15 5.1100000000e-04 5.1099893000e-04 0.0000e+00 1.0000e+00
       50  1    1    2    0    0 +1.7982429917e-02 -9.9217457022e-03 +1.4121740493e+01 1.4121756310e+01 4.9935713700e-03 0.0000e+00 0.0000e+00
       11  1    1    2    0    0 -1.0202380410e-02 +2.4578893187e-02 +7.0077113941e-01 7.0127645156e-01 5.1099893000e-04 0.0000e+00 1.0000e+00
<vert_displacement>
331.99626150444567
</vert_displacement>
</event>
<event>
 4   1200 +8.6263000e+09 1.42875300e-02 7.81665300e-03            nan
       50 -1    0    0    0    0 +1.7604442378e-01 +1.2542828859e-01 +5.3573247172e+01 5.3573683478e+01 4.9935713700e-03 0.0000e+00 0.0000e+00
       11 -1    0    0    0    0 -2.7635265078e-17 -1.9689598393e-17 -8.4098709572e-15 5.1100000000e-04 5.1099893000e-04 0.0000e+00 1.0000e+00
       50  1    1    2    0    0 +1.8636150141e-01 +1.3279397244e-01 +5.3397274855e+01 5.3397765419e+01 4.9935713700e-03 0.0000e+00 0.0000e+00
       11  1    1    2    0    0 -1.0317077638e-02 -7.3656838507e-03 +1.7597231771e-01 1.7642905971e-01 5.1099893000e-04 0.0000e+00 1.0000e+00
<vert_displacement>
300.44847903488215
</vert_displacement>
</event>
<event>
 4   1200 +8.6263000e+09 1.45177900e-02 7.81665300e-03            nan
       50 -1    0    0    0    0 +3.9068350186e-02 -3.3320850635e-02 +2.6510587845e+01 2.6510638043e+01 4.9935713700e-03 0.0000e+00 0.0000e+00
       11 -1    0    0    0    0 +2.0042468875e-18 -1.7093941991e-18 +1.3600206541e-15 5.1100000000e-04 5.1099893000e-04 0.0000e+00 1.0000e+00
       50  1    1    2    0    0 +4.5526194606e-02 -4.4946867686e-02 +2.6327463792e+01 2.6327541995e+01 4.9935713700e-03 0.0000e+00 0.0000e+00
       11  1    1    2    0    0 -6.4578444205e-03 +1.1626017051e-02 +1.8312405307e-01 1.8360704769e-01 5.1099893000e-04 0.0000e+00 1.0000e+00
<vert_displacement>
325.14409615299303
</vert_displacement>
</event>
<event>
 4   1200 +8.6263000e+09 1.70628800e-02 7.81665300e-03            nan
       50 -1    0    0    0    0 -4.3434086115e-03 -3.7880516337e-03 +2.7916208692e+00 2.7916312843e+00 4.9935713700e-03 0.0000e+00 0.0000e+00
       11 -1    0    0    0    0 +2.9689047686e-19 +2.5892946220e-19 -1.9081917572e-16 5.1100000000e-04 5.1099893000e-04 0.0000e+00 1.0000e+00
       50  1    1    2    0    0 +9.6922414644e-03 -1.2432759893e-02 +2.5004782481e+00 2.5005329268e+00 4.9935713700e-03 0.0000e+00 0.0000e+00
       11  1    1    2    0    0 -1.4035650076e-02 +8.6447082597e-03 +2.9114262108e-01 2.9160935750e-01 5.1099893000e-04 0.0000e+00 1.0000e+00
<vert_displacement>
447.04005019086850
</vert_displacement>
</event>
<event>
 4   1200 +8.6263000e+09 5.50099400e-03 7.81665300e-03            nan
       50 -1    0    0    0    0 +1.7568316123e-02 +1.9269072756e-02 +9.8752803220e+00 9.8753160110e+00 4.9935713700e-03 0.0000e+00 0.0000e+00
       11 -1    0    0    0    0 +1.3825710564e-18 +1.5164152381e-18 +7.7715340798e-16 5.1100000000e-04 5.1099893000e-04 0.0000e+00 1.0000e+00
       50  1    1    2    0    0 +1.9866415624e-02 +1.9293350931e-02 +9.8700625903e+00 9.8701027036e+00 4.9935713700e-03 0.0000e+00 0.0000e+00
       11  1    1    2    0    0 -2.2980995014e-03 -2.4278175506e-05 +5.2177317153e-03 5.7243073736e-03 5.1099893000e-04 0.0000e+00 1.0000e+00
<vert_displacement>
58.131904898600631
</vert_displacement>
</event>
<event>
 4   1200 +8.6263000e+09 5.52783100e-03 7.81665300e-03            nan
       50 -1    0    0    0    0 -1.2171200428e-02 +4.7110217019e-03 +3.6074970074e+00 3.6075240714e+00 4.9935713700e-03 0.0000e+00 0.0000e+00
       11 -1    0    0    0    0 -9.2472358710e-19 +3.5792631243e-19 +2.7408451556e-16 5.1100000000e-04 5.1099893000e-04 0.0000e+00 1.0000e+00
       50  1    1    2    0    0 -9.8700136383e-03 +5.3448072288e-03 +3.6019944969e+00 3.6020154463e+00 4.9935713700e-03 0.0000e+00 0.0000e+00
       11  1    1    2    0    0 -2.3011867899e-03 -6.3378552694e-04 +5.5025104894e-03 6.0196250986e-03 5.1099893000e-04 0.0000e+00 1.0000e+00
<vert_displacement>
173.83850133570820
</vert_displacement>
</event>
<event>
 4   1200 +8.6263000e+09 1.97348700e-02 7.81665300e-03            nan
       50 -1    0    0    0    0 +3.9387421523e-03 +5.5795665092e-03 +2.2494576283e+00 2.2494735390e+00 4.9935713700e-03 0.0000e+00 0.0000e+00
       11 -1    0    0    0    0 +5.4673955259e-19 +7.7450352903e-19 +3.1224878647e-16 5.1100000000e-04 5.1099893000e-04 0.0000e+00 1.0000e+00
       50  1    1    2    0    0 +2.1302047146e-02 -1.4687152751e-03 +1.8032071785e+00 1.8033405110e+00 4.9935713700e-03 0.0000e+00 0.0000e+00
       11  1    1    2    0    0 -1.7363304993e-02 +7.0482817843e-03 +4.4625044989e-01 4.4664402804e-01 5.1099893000e-04 0.0000e+00 1.0000e+00
<vert_displacement>
90.561062272606023
</vert_displacement>
</event>
<event>
 4   1200 +8.6263000e+09 8.48086800e-03 7.81665300e-03            nan
       50 -1    0    0    0    0 +7.5701958461e-02 -2.8232831075e-02 +3.4649431546e+01 3.4649526105e+01 4.9935713700e-03 0.0000e+00 0.0000e+00
       11 -1    0    0    0    0 -4.2751285275e-18 +1.5943970803e-18 -1.9567627612e-15 5.1100000000e-04 5.1099893000e-04 0.0000e+00 1.0000e+00
       50  1    1    2    0    0 +7.5530416351e-02 -3.5049826448e-02 +3.4603386501e+01 3.4603487044e+01 4.9935713700e-03 0.0000e+00 0.0000e+00
       11  1    1    2    0    0 +1.7154210957e-04 +6.8169953731e-03 +4.6045045504e-02 4.6550061095e-02 5.1099893000e-04 0.0000e+00 1.0000e+00
<vert_displacement>
413.92015691063511
</vert_displacement>
</event>
<event>
 4   1200 +8.6263000e+09 1.44382400e-02 7.81665300e-03            nan
       50 -1    0    0    0    0 -7.9738733518e-02 +2.7328637233e-02 +2.3358956219e+01 2.3359108838e+01 4.9935713700e-03 0.0000e+00 0.0000e+00
       11 -1    0    0    0    0 -1.7528107986e-18 +6.0073603305e-19 +5.1347480577e-16 5.1100000000e-04 5.1099893000e-04 0.0000e+00 1.0000e+00
       50  1    1    2    0    0 -9.2359749109e-02 +2.4243079200e-02 +2.3177931601e+01 2.3178128835e+01 4.9935713700e-03 0.0000e+00 0.0000e+00
       11  1    1    2    0    0 +1.2621015591e-02 +3.0855580332e-03 +1.8102461790e-01 1.8149100283e-01 5.1099893000e-04 0.0000e+00 1.0000e+00
<vert_displacement>
232.85270839847453
</vert_displacement>
</event>
<event>
 4   1200 +8.6263000e+09 1.46067400e-02 7.81665300e-03            nan
       50 -1    0    0    0    0 -2.8431195033e-02 +2.1361569985e-02 +1.1639528222e+01 1.1639583619e+01 4.9935713700e-03 0.0000e+00 0.0000e+00
       11 -1    0    0    0    0 +1.3728812569e-18 -1.0315042690e-18 -5.6204778295e-16 5.1100000000e-04 5.1099893000e-04 0.0000e+00 1.0000e+00
       50  1    1    2    0    0 -3.3331396309e-02 +8.3798750387e-03 +1.1452142795e+01 1.1452195454e+01 4.9935713700e-03 0.0000e+00 0.0000e+00
       11  1    1    2    0    0 +4.9002012763e-03 +1.2981694947e-02 +1.8738542762e-01 1.8789916439e-01 5.1099893000e-04 0.0000e+00 1.0000e+00
<vert_displacement>
476.83422793320909
</vert_displacement>
</event>
<event>
 4   1200 +8.6263000e+09 5.91078300e-03 7.81665300e-03            nan
       50 -1    0    0    0    0 +6.3947154952e-02 +5.1304721143e-02 +2.1239906504e+01 2.1240065316e+01 4.9935713700e-03 0.0000e+00 0.0000e+00
       11 -1    0    0    0    0 -5.2644884745e-18 -4.2236924121e-18 -1.7485882378e-15 5.1100000000e-04 5.1099893000e-04 0.0000e+00 1.0000e+00
       50  1    1    2    0    0 +6.7009740648e-02 +5.0617229064e-02 +2.1230107814e+01 2.1230274495e+01 4.9935713700e-03 0.0000e+00 0.0000e+00
       11  1    1    2    0    0 -3.0625856965e-03 +6.8749207821e-04 +9.7986896598e-03 1.0301820978e-02 5.1099893000e-04 0.0000e+00 1.0000e+00
<vert_displacement>
323.71940961142838
</vert_displacement>
</event>
<event>
 4   1200 +8.6263000e+09 1.66415500e-02 7.81665300e-03            nan
       50 -1    0    0    0    0 -2.1322821752e-02 -2.3240995376e-02 +1.1412721638e+01 1.1412766314e+01 4.9935713700e-03 0.0000e+00 0.0000e+00
       11 -1    0    0    0    0 -9.0749048543e-19 -9.8912716247e-19 +4.8572071839e-16 5.1100000000e-04 5.1099893000e-04 0.0000e+00 1.0000e+00
       50  1    1    2    0    0 -2.7722380431e-02 -3.7038197015e-02 +1.1160505056e+01 1.1160602062e+01 4.9935713700e-03 0.0000e+00 0.0000e+00
       11  1    1    2    0    0 +6.3995586792e-03 +1.3797201639e-02 +2.5221658240e-01 2.5267525142e-01 5.1099893000e-04 0.0000e+00 1.0000e+00
<vert_displacement>
495.02585624382959
</vert_displacement>
</event>
<event>
 4   1200 +8.6263000e+09 2.14535300e-02 7.81665300e-03            nan
       50 -1    0    0    0    0 -1.2175182728e-02 +3.8311334814e-02 +2.9574240024e+01 2.9574267766e+01 4.9935713700e-03 0.0000e+00 0.0000e+00
       11 -1    0    0    0    0 -4.4563196900e-19 +1.4022586724e-18 +1.0824664490e-15 5.1100000000e-04 5.1099893000e-04 0.0000e+00 1.0000e+00
       50  1    1    2    0    0 -1.0678496948e-02 +1.6928809090e-02 +2.9141989790e+01 2.9141997092e+01 4.9935713700e-03 0.0000e+00 0.0000e+00
       11  1    1    2    0    0 -1.4966857800e-03 +2.1382525724e-02 +4.3225023355e-01 4.3278167474e-01 5.1099893000e-04 0.0000e+00 1.0000e+00
<vert_displacement>
450.01533477044285
</vert_displacement>
</event>
<event>
 4   1200 +8.6263000e+09 7.27330500e-03 7.81665300e-03            nan
       50 -1    0    0    0    0 -1.4873770460e-02 +6.4121030730e-03 +1.2126146972e+01 1.2126158817e+01 4.9935713700e-03 0.0000e+00 0.0000e+00
       11 -1    0    0    0    0 +4.2555736520e-20 -1.8345837032e-20 -3.4694438570e-17 5.1100000000e-04 5.1099893000e-04 0.0000e+00 1.0000e+00
       50  1    1    2    0    0 -1.1141862763e-02 +1.0177551410e-02 +1.2098723002e+01 1.2098733443e+01 4.9935713700e-03 0.0000e+00 0.0000e+00
       11  1    1    2    0    0 -3.7319076975e-03 -3.7654483368e-03 +2.7423970184e-02 2.7936374081e-02 5.1099893000e-04 0.0000e+00 1.0000e+00
<vert_displacement>
346.89144442605351
</vert_displacement>
</event>
<event>
 4   1200 +8.6263000e+09 9.24196700e-03 7.81665300e-03            nan
       50 -1    0    0    0    0 -1.0165066675e-01 -5.1535482394e-02 +3.2006116277e+01 3.2006319577e+01 4.9935713700e-03 0.0000e+00 0.0000e+00
       11 -1    0    0    0    0 -5.0245780152e-18 -2.5473915728e-18 +1.5820577803e-15 5.1100000000e-04 5.1099893000e-04 0.0000e+00 1.0000e+00
       50  1    1    2    0    0 -9.3743039096e-02 -5.2383176137e-02 +3.1946852488e+01 3.1947033362e+01 4.9935713700e-03 0.0000e+00 0.0000e+00
       11  1    1    2    0    0 -7.9076276507e-03 +8.4769374309e-04 +5.9263788584e-02 5.9797214961e-02 5.1099893000e-04 0.0000e+00 1.0000e+00
<vert_displacement>
103.34113190164665
</vert_displacement>
</event>
<event>
 4   1200 +8.6263000e+09 1.70869900e-02 7.81665300e-03            nan
       50 -1    0    0    0    0 +1.1930537247e-02 -4.5365445912e-03 +4.4302282541e+00 4.4302494554e+00 4.9935713700e-03 0.0000e+00 0.0000e+00
       11 -1    0    0    0    0 -1.6070181964e-18 +6.1106298534e-19 -5.9674239904e-16 5.1100000000e-04 5.1099893000e-04 0.0000e+00 1.0000e+00
       50  1    1    2    0    0 +1.7418992458e-02 -1.9353666842e-02 +4.1512226670e+00 4.1513073305e+00 4.9935713700e-03 0.0000e+00 0.0000e+00
       11  1    1    2    0    0 -5.4884552113e-03 +1.4817122251e-02 +2.7900558711e-01 2.7945312489e-01 5.1099893000e-04 0.0000e+00 1.0000e+00
<vert_displacement>
284.96032012295547
</vert_displacement>
</event>
<event>
 4   1200 +8.6263000e+09 9.32994500e-03 7.81665300e-03            nan
       50 -1    0    0    0    0 -5.0138575492e-03 +1.2794556549e-03 +1.9738856915e+00 1.9738987904e+00 4.9935713700e-03 0.0000e+00 0.0000e+00
       11 -1    0    0    0    0 -5.1113632338e-19 +1.3043375345e-19 +2.0122723177e-16 5.1100000000e-04 5.1099893000e-04 0.0000e+00 1.0000e+00
       50  1    1    2    0    0 -7.3277495281e-03 -6.2441859362e-03 +1.9110701235e+00 1.9111008970e+00 4.9935713700e-03 0.0000e+00 0.0000e+00
       11  1    1    2    0    0 +2.3138919790e-03 +7.5236415911e-03 +6.2815568001e-02 6.3308893388e-02 5.1099893000e-04 0.0000e+00 1.0000e+00
<vert_displacement>
388.23881037629059
</vert_displacement>
</event>
<event>
 4   1200 +8.6263000e+09 1.33582000e-02 7.81665300e-03            nan
       50 -1    0    0    0    0 +2.7508016527e-02 +2.5816278009e-04 +1.2205438281e+01 1.2205470303e+01 4.9935713700e-03 0.0000e+00 0.0000e+00
       11 -1    0    0    0    0 +2.6585446773e-18 +2.4950446143e-20 +1.1796089676e-15 5.1100000000e-04 5.1099893000e-04 0.0000e+00 1.0000e+00
       50  1    1    2    0    0 +2.3866869052e-02 +1.2197585755e-02 +1.2053338905e+01 1.2053369741e+01 4.9935713700e-03 0.0000e+00 0.0000e+00
       11  1    1    2    0    0 +3.6411474750e-03 -1.1939422975e-02 +1.5209937570e-01 1.5261156242e-01 5.1099893000e-04 0.0000e+00 1.0000e+00
<vert_displacement>
100.78840225091093
</vert_displacement>
</event>
<event>
 4   1200 +8.6263000e+09 6.00792800e-03 7.81665300e-03            nan
       50 -1    0    0    0    0 -5.8706822252e-02 +5.8604323423e-03 +1.7861888044e+01 1.7861986179e+01 4.9935713700e-03 0.0000e+00 0.0000e+00
       11 -1    0    0    0    0 -2.6454958062e-18 +2.6408769184e-19 +8.0490730206e-16 5.1100000000e-04 5.1099893000e-04 0.0000e+00 1.0000e+00
       50  1    1    2    0    0 -5.5817033561e-02 +7.5931504414e-03 +1.7850970690e+01 1.7851060268e+01 4.9935713700e-03 0.0000e+00 0.0000e+00
       11  1    1    2    0    0 -2.8897886902e-03 -1.7327180991e-03 +1.0917354452e-02 1.1436911245e-02 5.1099893000e-04 0.0000e+00 1.0000e+00
<vert_displacement>
487.34120138747124
</vert_displacement>
</event>
<event>
 4   1200 +8.6263000e+09 1.01392000e-02 7.81665300e-03            nan
       50 -1    0    0    0    0 +2.7931903502e-02 +2.7639479963e-03 +2.7186540606e+01 2.7186555553e+01 4.9935713700e-03 0.0000e+00 0.0000e+00
       11 -1    0    0    0    0 -4.6909682519e-18 -4.6418577594e-19 -4.5657897554e-15 5.1100000000e-04 5.1099893000e-04 0.0000e+00 1.0000e+00
       50  1    1    2    0    0 +3.5454475107e-02 +7.2385019319e-03 +2.7110124618e+01 2.7110149227e+01 4.9935713700e-03 0.0000e+00 0.0000e+00
       11  1    1    2    0    0 -7.5225716042e-03 -4.4745539355e-03 +7.6415988011e-02 7.6917326137e-02 5.1099893000e-04 0.0000e+00 1.0000e+00
<vert_displacement>
241.36928666973506
</vert_displacement>
</event>
<event>
 4   1200 +8.6263000e+09 6.13708000e-03 7.81665300e-03            nan
       50 -1    0    0    0    0 -2.4268622093e-02 -1.2770254323e-02 +7.2508350502e+00 7.2508886287e+00 4.9935713700e-03 0.0000e+00 0.0000e+00
       11 -1    0    0    0    0 +1.7186045382e-18 +9.0433717042e-19 -5.1347447644e-16 5.1100000000e-04 5.1099893000e-04 0.0000e+00 1.0000e+00
       50  1    1    2    0    0 -2.0661256170e-02 -1.2628735531e-02 +7.2383708579e+00 7.2384130847e+00 4.9935713700e-03 0.0000e+00 0.0000e+00
       11  1    1    2    0    0 -3.6073659225e-03 -1.4151879197e-04 +1.2464192222e-02 1.2986543964e-02 5.1099893000e-04 0.0000e+00 1.0000e+00
<vert_displacement>
32.814856620372922
</vert_displacement>
</event>
<event>
 4   1200 +8.6263000e+09 1.52127500e-02 7.81665300e-03            nan
       50 -1    0    0    0    0 +1.8179337018e-02 -1.1285333362e-03 +7.4478529636e+00 7.4478769099e+00 4.9935713700e-03 0.0000e+00 0.0000e+00
       11 -1    0    0    0    0 -1.0839665215e-18 +6.7290262216e-20 -4.4408788184e-16 5.1100000000e-04 5.1099893000e-04 0.0000e+00 1.0000e+00
       50  1    1    2    0    0 +2.6884255550e-02 +9.9313133352e-03 +7.2399508218e+00 7.2400092702e+00 4.9935713700e-03 0.0000e+00 0.0000e+00
       11  1    1    2    0    0 -8.7049185322e-03 -1.1059846671e-02 +2.0790214176e-01 2.0837863970e-01 5.1099893000e-04 0.0000e+00 1.0000e+00
<vert_displacement>
144.81444749099921
</vert_displacement>
</event>
<event>
 4   1200 +8.6263000e+09 2.39792200e-02 7.81665300e-03            nan
       50 -1    0    0    0    0 +1.0439806363e-01 +1.0002928578e-01 +4.2223982368e+01 4.2224230209e+01 4.9935713700e-03 0.0000e+00 0.0000e+00
       11 -1    0    0    0    0 +1.1254463379e-17 +1.0783494392e-17 +4.5518877147e-15 5.1100000000e-04 5.1099893000e-04 0.0000e+00 1.0000e+00
       50  1    1    2    0    0 +8.9771569991e-02 +1.1807023173e-01 +4.1678693939e+01 4.1678958155e+01 4.9935713700e-03 0.0000e+00 0.0000e+00
       11  1    1    2    0    0 +1.4626493638e-02 -1.8040945950e-02 +5.4528842905e-01 5.4578305399e-01 5.1099893000e-04 0.0000e+00 1.0000e+00
<vert_displacement>
276.27230726845852
</vert_displacement>
</event>
<event>
 4   1200 +8.6263000e+09 8.58822800e-03 7.81665300e-03            nan
       50 -1    0    0    0    0 +8.0136163698e-02 +4.2407172966e-02 +2.9550831756e+01 2.9550971263e+01 4.9935713700e-03 0.0000e+00 0.0000e+00
       11 -1    0    0    0    0 +4.4407778147e-18 +2.3500105845e-18 +1.6375712539e-15 5.1100000000e-04 5.1099893000e-04 0.0000e+00 1.0000e+00
       50  1    1    2    0    0 +7.7940983224e-02 +3.5663501170e-02 +2.9502997853e+01 2.9503122783e+01 4.9935713700e-03 0.0000e+00 0.0000e+00
       11  1    1    2    0    0 +2.1951804742e-03 +6.7436717961e-03 +4.7833902979e-02 4.8359480154e-02 5.1099893000e-04 0.0000e+00 1.0000e+00
<vert_displacement>
386.01463921107995
</vert_displacement>
</event>
<event>
 4   1200 +8.6263000e+09 9.78331900e-03 7.81665300e-03            nan
       50 -1    0    0    0    0 +4.2274511092e-02 +1.4509188921e-02 +1.7650261753e+01 1.7650319049e+01 4.9935713700e-03 0.0000e+00 0.0000e+00
       11 -1    0    0    0    0 +1.6287047904e-18 +5.5899370305e-19 +6.8000942236e-16 5.1100000000e-04 5.1099893000e-04 0.0000e+00 1.0000e+00
       50  1    1    2    0    0 +3.4137371005e-02 +1.7144005994e-02 +1.7580748573e+01 1.7580790784e+01 4.9935713700e-03 0.0000e+00 0.0000e+00
       11  1    1    2    0    0 +8.1371400874e-03 -2.6348170727e-03 +6.9513179811e-02 7.0039264682e-02 5.1099893000e-04 0.0000e+00 1.0000e+00
<vert_displacement>
444.66068854892399
</vert_displacement>
</event>
<event>
 4   1200 +8.6263000e+09 6.88037900e-03 7.81665300e-03            nan
       50 -1    0    0    0    0 -2.4281435189e-03 +1.4531749222e-02 +7.7097569491e+00 7.7097726438e+00 4.9935713700e-03 0.0000e+00 0.0000e+00
       11 -1    0    0    0    0 +6.5560819651e-21 -3.9236288240e-20 -2.0816643702e-17 5.1100000000e-04 5.1099893000e-04 0.0000e+00 1.0000e+00
       50  1    1    2    0    0 -1.7440758801e-03 +1.9174886897e-02 +7.6877624309e+00 7.6877881636e+00 4.9935713700e-03 0.0000e+00 0.0000e+00
       11  1    1    2    0    0 -6.8406763874e-04 -4.6431376750e-03 +2.1994518247e-02 2.2495480186e-02 5.1099893000e-04 0.0000e+00 1.0000e+00
<vert_displacement>
199.85385968114917
</vert_displacement>
</event>
<event>
 4   1200 +8.6263000e+09 1.26417900e-02 7.81665300e-03            nan
       50 -1    0    0    0    0 +2.4330684271e-02 -2.9902963698e-03 +1.1347247709e+01 1.1347275286e+01 4.9935713700e-03 0.0000e+00 0.0000e+00
       11 -1    0    0    0    0 +1.6961250670e-18 -2.0845762388e-19 +7.9103205917e-16 5.1100000000e-04 5.1099893000e-04 0.0000e+00 1.0000e+00
       50  1    1    2    0    0 +1.6796441672e-02 +6.1194280422e-03 +1.1213709120e+01 1.1213724481e+01 4.9935713700e-03 0.0000e+00 0.0000e+00
       11  1    1    2    0    0 +7.5342425991e-03 -9.1097244119e-03 +1.3353858822e-01 1.3406180498e-01 5.1099893000e-04 0.0000e+00 1.0000e+00
<vert_displacement>
10.132638167640398
</vert_displacement>
</event>
<event>
 4   1200 +8.6263000e+09 1.59332400e-02 7.81665300e-03            nan
       50 -1    0    0    0    0 -6.3648624458e-02 +1.2861606221e-02 +1.9861646475e+01 1.9861753251e+01 4.9935713700e-03 0.0000e+00 0.0000e+00
       11 -1    0    0    0    0 -4.7140866595e-18 +9.5258502162e-19 +1.4710376458e-15 5.1100000000e-04 5.1099893000e-04 0.0000e+00 1.0000e+00
       50  1    1    2    0    0 -7.6066367987e-02 +2.0209414471e-02 +1.9635002267e+01 1.9635160643e+01 4.9935713700e-03 0.0000e+00 0.0000e+00
       11  1    1    2    0    0 +1.2417743529e-02 -7.3478082502e-03 +2.2664420842e-01 2.2710360845e-01 5.1099893000e-04 0.0000e+00 1.0000e+00
<vert_displacement>
173.50291054581976
</vert_displacement>
</event>
<event>
 4   1200 +8.6263000e+09 5.05114300e-02 7.81665300e-03            nan
       50 -1    0    0    0    0 +8.4566624272e-03 -5.8142190581e-03 +1.1196893150e+01 1.1196898966e+01 4.9935713700e-03 0.0000e+00 0.0000e+00
       11 -1    0    0    0    0 +2.0962907454e-19 -1.4412652400e-19 +2.7755563957e-16 5.1100000000e-04 5.1099893000e-04 0.0000e+00 1.0000e+00
       50  1    1    2    0    0 -4.4063760694e-02 +3.3999556084e-03 +7.5043477189e+00 7.5044795154e+00 4.9935713700e-03 0.0000e+00 0.0000e+00
       11  1    1    2    0    0 +5.2520423121e-02 -9.2141746666e-03 +3.6925454306e+00 3.6929304508e+00 5.1099893000e-04 0.0000e+00 1.0000e+00
<vert_displacement>
428.13310128867437
</vert_displacement>
</event>
<event>
 4   1200 +8.6263000e+09 1.65432900e-02 7.81665300e-03            nan
       50 -1    0    0    0    0 -1.0695858267e-02 -1.0704905471e-02 +2.4267235890e+01 2.4267241122e+01 4.9935713700e-03 0.0000e+00 0.0000e+00
       11 -1    0    0    0    0 -6.4225099400e-19 -6.4279424875e-19 +1.4571674365e-15 5.1100000000e-04 5.1099893000e-04 0.0000e+00 1.0000e+00
       50  1    1    2    0    0 +3.2582367401e-03 -3.0439069367e-03 +2.4021356131e+01 2.4021357064e+01 4.9935713700e-03 0.0000e+00 0.0000e+00
       11  1    1    2    0    0 -1.3954095007e-02 -7.6609985342e-03 +2.4587975856e-01 2.4639505769e-01 5.1099893000e-04 0.0000e+00 1.0000e+00
<vert_displacement>
349.60622432227592
</vert_displacement>
</event>
<event>
 4   1200 +8.6263000e+09 1.82786600e-02 7.81665300e-03            nan
       50 -1    0    0    0    0 +7.6651846810e-03 -2.3428130780e-03 +5.6903314185e+00 5.6903392545e+00 4.9935713700e-03 0.0000e+00 0.0000e+00
       11 -1    0    0    0    0 +4.4865872228e-19 -1.3712957559e-19 +3.3306657697e-16 5.1100000000e-04 5.1099893000e-04 0.0000e+00 1.0000e+00
       50  1    1    2    0    0 +1.3363003132e-02 -1.8691033826e-02 +5.3696206414e+00 5.3696721216e+00 4.9935713700e-03 0.0000e+00 0.0000e+00
       11  1    1    2    0    0 -5.6978184514e-03 +1.6348220748e-02 +3.2071077702e-01 3.2117813293e-01 5.1099893000e-04 0.0000e+00 1.0000e+00
<vert_displacement>
239.20537419455090
</vert_displacement>
</event>
<event>
 4   1200 +8.6263000e+09 5.89362400e-03 7.81665300e-03            nan
       50 -1    0    0    0    0 +2.9626601477e-02 -3.5878359712e-02 +1.6071335928e+01 1.6071404059e+01 4.9935713700e-03 0.0000e+00 0.0000e+00
       11 -1    0    0    0    0 -4.3746608519e-18 +5.2977948140e-18 -2.3730917694e-15 5.1100000000e-04 5.1099893000e-04 0.0000e+00 1.0000e+00
       50  1    1    2    0    0 +2.6722627832e-02 -3.7068710762e-02 +1.6061744434e+01 1.6061810215e+01 4.9935713700e-03 0.0000e+00 0.0000e+00
       11  1    1    2    0    0 +2.9039736453e-03 +1.1903510508e-03 +9.5914932323e-03 1.0104843437e-02 5.1099893000e-04 0.0000e+00 1.0000e+00
<vert_displacement>
386.41570033386472
</vert_displacement>
</event>
<event>
 4   1200 +8.6263000e+09 1.03480600e-02 7.81665300e-03            nan
       50 -1    0    0    0    0 +2.6257635625e-02 -9.4665224785e-03 +1.9875941758e+01 1.9875961984e+01 4.9935713700e-03 0.0000e+00 0.0000e+00
       11 -1    0    0    0    0 +5.5000795533e-20 -1.9829137501e-20 +4.1633322371e-17 5.1100000000e-04 5.1099893000e-04 0.0000e+00 1.0000e+00
       50  1    1    2    0    0 +2.2982081339e-02 -1.7919514555e-02 +1.9795233562e+01 1.9795255644e+01 4.9935713700e-03 0.0000e+00 0.0000e+00
       11  1    1    2    0    0 +3.2755542853e-03 +8.4529920760e-03 +8.0708196341e-02 8.1217340559e-02 5.1099893000e-04 0.0000e+00 1.0000e+00
<vert_displacement>
333.97105484562354
</vert_displacement>
</event>
<event>
 4   1200 +8.6263000e+09 3.96070200e-02 7.81665300e-03            nan
       50 -1    0    0    0    0 -1.3964964902e-02 -1.8023314387e-02 +9.0397485388e+00 9.0397786721e+00 4.9935713700e-03 0.0000e+00 0.0000e+00
       11 -1    0    0    0    0 -8.3611683358e-19 -1.0791002099e-18 +5.4123200293e-16 5.1100000000e-04 5.1099893000e-04 0.0000e+00 1.0000e+00
       50  1    1    2    0    0 -4.9984973582e-02 -1.9091882823e-02 +7.1205195696e+00 7.1207223563e+00 4.9935713700e-03 0.0000e+00 0.0000e+00
       11  1    1    2    0    0 +3.6020008680e-02 +1.0685684359e-03 +1.9192289691e+00 1.9195673158e+00 5.1099893000e-04 0.0000e+00 1.0000e+00
<vert_displacement>
405.68379459203680
</vert_displacement>
</event>
<event>
 4   1200 +8.6263000e+09 4.39665800e-02 7.81665300e-03            nan
       50 -1    0    0    0    0 -7.9489448877e-03 +1.9137299173e-02 +8.9856621870e+00 8.9856874693e+00 4.9935713700e-03 0.0000e+00 0.0000e+00
       11 -1    0    0    0    0 -3.1305357441e-19 +7.5368492239e-19 +3.5388264805e-16 5.1100000000e-04 5.1099893000e-04 0.0000e+00 1.0000e+00
       50  1    1    2    0    0 -2.7905864909e-02 -2.9739499603e-02 +2.6760234008e+00 2.6763387963e+00 4.9935713700e-03 0.0000e+00 0.0000e+00
       11  1    1    2    0    0 +1.9956920022e-02 +4.8876798776e-02 +6.3096387862e+00 6.3098596731e+00 5.1099893000e-04 0.0000e+00 1.0000e+00
<vert_displacement>
110.39511413453174
</vert_displacement>
</event>
<event>
 4   1200 +8.6263000e+09 8.72841100e-03 7.81665300e-03            nan
       50 -1    0    0    0    0 +1.6544474750e-02 +6.5071486842e-03 +1.8101061166e+01 1.8101070586e+01 4.9935713700e-03 0.0000e+00 0.0000e+00
       11 -1    0    0    0    0 +1.5474934231e-18 +6.0864850315e-19 +1.6930892959e-15 5.1100000000e-04 5.1099893000e-04 0.0000e+00 1.0000e+00
       50  1    1    2    0    0 +1.0247473601e-02 +2.9999612234e-03 +1.8050780654e+01 1.8050784503e+01 4.9935713700e-03 0.0000e+00 0.0000e+00
       11  1    1    2    0    0 +6.2970011494e-03 +3.5071874608e-03 +5.0280512590e-02 5.0797083121e-02 5.1099893000e-04 0.0000e+00 1.0000e+00
<vert_displacement>
78.960426982998371
</vert_displacement>
</event>
<event>
 4   1200 +8.6263000e+09 6.15262000e-03 7.81665300e-03            nan
       50 -1    0    0    0    0 +1.8270560238e-02 -3.3856988808e-04 +5.3093327870e+00 5.3093665825e+00 4.9935713700e-03 0.0000e+00 0.0000e+00
       11 -1    0    0    0    0 -1.9341253210e-18 +3.5841079033e-20 -5.6204707721e-16 5.1100000000e-04 5.1099893000e-04 0.0000e+00 1.0000e+00
       50  1    1    2    0    0 +1.8646534101e-02 +3.2319611400e-03 +5.2966591669e+00 5.2966953287e+00 4.9935713700e-03 0.0000e+00 0.0000e+00
       11  1    1    2    0    0 -3.7597386271e-04 -3.5705310281e-03 +1.2673620094e-02 1.3182253766e-02 5.1099893000e-04 0.0000e+00 1.0000e+00
<vert_displacement>
431.11242890396619
</vert_displacement>
</event>
<event>
 4   1200 +8.6263000e+09 1.53981200e-02 7.81665300e-03            nan
       50 -1    0    0    0    0 +1.9870655254e-02 +1.0381471800e-02 +8.5628375064e+00 8.5628683112e+00 4.9935713700e-03 0.0000e+00 0.0000e+00
       11 -1    0    0    0    0 -2.2865020178e-18 -1.1945884982e-18 -9.8531955722e-16 5.1100000000e-04 5.1099893000e-04 0.0000e+00 -1.0000e+00
       50  1    1    2    0    0 +1.4475005685e-02 -3.5930948098e-03 +8.3499453369e+00 8.3499601497e+00 4.9935713700e-03 0.0000e+00 0.0000e+00
       11  1    1    2    0    0 +5.3956495684e-03 +1.3974566609e-02 +2.1289216949e-01 2.1341916151e-01 5.1099893000e-04 0.0000e+00 -1.0000e+00
<vert_displacement>
491.86746977782786
</vert_displacement>
</event>
<event>
 4   1200 +8.6263000e+09 9.50233500e-03 7.81665300e-03            nan
       50 -1    0    0    0    0 +2.0116331456e-02 +1.2537238164e-02 +9.8847998844e+00 9.8848295656e+00 4.9935713700e-03 0.0000e+00 0.0000e+00
       11 -1    0    0    0    0 +1.1720550008e-18 +7.3046781510e-19 +5.7592653818e-16 5.1100000000e-04 5.1099893000e-04 0.0000e+00 1.0000e+00
       50  1    1    2    0    0 +2.4924132685e-02 +6.0550595536e-03 +9.8204228706e+00 9.8204576354e+00 4.9935713700e-03 0.0000e+00 0.0000e+00
       11  1    1    2    0    0 -4.8078012290e-03 +6.4821786107e-03 +6.4377013835e-02 6.4882930132e-02 5.1099893000e-04 0.0000e+00 1.0000e+00
<vert_displacement>
409.59884270675531
</vert_displacement>
</event>
<event>
 4   1200 +8.6263000e+09 1.48921400e-02 7.81665300e-03            nan
       50 -1    0    0    0    0 -3.2898162645e-02 +3.5445594741e-02 +2.9907457126e+01 2.9907496641e+01 4.9935713700e-03 0.0000e+00 0.0000e+00
       11 -1    0    0    0    0 -2.6714673967e-18 +2.8783294595e-18 +2.4286096914e-15 5.1100000000e-04 5.1099893000e-04 0.0000e+00 1.0000e+00
       50  1    1    2    0    0 -3.7369905068e-02 +2.1991205086e-02 +2.9713604178e+01 2.9713636235e+01 4.9935713700e-03 0.0000e+00 0.0000e+00
       11  1    1    2    0    0 +4.4717424229e-03 +1.3454389655e-02 +1.9385294809e-01 1.9437140655e-01 5.1099893000e-04 0.0000e+00 1.0000e+00
<vert_displacement>
426.68538442544775
</vert_displacement>
</event>
<event>
 4   1200 +8.6263000e+09 2.01486000e-02 7.81665300e-03            nan
       50 -1    0    0    0    0 +3.5686267982e-02 -1.2891488118e-02 +1.1921325549e+01 1.1921386978e+01 4.9935713700e-03 0.0000e+00 0.0000e+00
       11 -1    0    0    0    0 +1.5163082296e-18 -5.4775886161e-19 +5.0653668930e-16 5.1100000000e-04 5.1099893000e-04 0.0000e+00 -1.0000e+00
       50  1    1    2    0    0 +4.8606100533e-02 -2.6001432452e-02 +1.1535947134e+01 1.1536079917e+01 4.9935713700e-03 0.0000e+00 0.0000e+00
       11  1    1    2    0    0 -1.2919832551e-02 +1.3109944334e-02 +3.8537841435e-01 3.8581806085e-01 5.1099893000e-04 0.0000e+00 -1.0000e+00
<vert_displacement>
462.31796068743159
</vert_displacement>
</event>
<event>
 4   1200 +8.6263000e+09 2.67146700e-02 7.81665300e-03            nan
       50 -1    0    0    0    0 +2.5616254385e-03 -2.0082616520e-02 +7.7076937260e+00 7.7077219321e+00 4.9935713700e-03 0.0000e+00 0.0000e+00
       11 -1    0    0    0    0 -2.2138651323e-19 +1.7356247253e-18 -6.6613151688e-16 5.1100000000e-04 5.1099893000e-04 0.0000e+00 1.0000e+00
       50  1    1    2    0    0 +1.2399851616e-02 +6.0904347845e-03 +6.9612783452e+00 6.9612938442e+00 4.9935713700e-03 0.0000e+00 0.0000e+00
       11  1    1    2    0    0 -9.8382261778e-03 -2.6173051305e-02 +7.4641538076e-01 7.4693908792e-01 5.1099893000e-04 0.0000e+00 1.0000e+00
<vert_displacement>
108.44203855349083
</vert_displacement>
</event>
<event>
 4   1200 +8.6263000e+09 2.99730700e-02 7.81665300e-03            nan
       50 -1    0    0    0    0 +3.8356825828e-02 -5.9316778652e-03 +1.5836821412e+01 1.5836869760e+01 4.9935713700e-03 0.0000e+00 0.0000e+00
       11 -1    0    0    0    0 +2.6889552006e-19 -4.1583253305e-20 +1.1102196904e-16 5.1100000000e-04 5.1099893000e-04 0.0000e+00 1.0000e+00
       50  1    1    2    0    0 +1.6623852029e-02 +1.6583350189e-02 +1.4930219566e+01 1.4930238865e+01 4.9935713700e-03 0.0000e+00 0.0000e+00
       11  1    1    2    0    0 +2.1732973799e-02 -2.2515028055e-02 +9.0660184628e-01 9.0714189487e-01 5.1099893000e-04 0.0000e+00 1.0000e+00
<vert_displacement>
121.71860085664117
</vert_displacement>
</event>
<event>
 4   1200 +8.6263000e+09 1.74782300e-02 7.81665300e-03            nan
       50 -1    0    0    0    0 -3.9637345206e-03 -9.0248071991e-03 +4.0578417695e+00 4.0578568137e+00 4.9935713700e-03 0.0000e+00 0.0000e+00
       11 -1    0    0    0    0 +6.5746123455e-19 +1.4969370052e-18 -6.7307072295e-16 5.1100000000e-04 5.1099893000e-04 0.0000e+00 1.0000e+00
       50  1    1    2    0    0 -1.0302133026e-03 -2.4905460291e-02 +3.7614936607e+00 3.7615795669e+00 4.9935713700e-03 0.0000e+00 0.0000e+00
       11  1    1    2    0    0 -2.9335212181e-03 +1.5880653092e-02 +2.9634810882e-01 2.9678824676e-01 5.1099893000e-04 0.0000e+00 1.0000e+00
<vert_displacement>
108.87146078334561
</vert_displacement>
</event>
<event>
 4   1200 +8.6263000e+09 8.02458300e-03 7.81665300e-03            nan
       50 -1    0    0    0    0 +2.7599795014e-02 -1.6612059755e-02 +1.2314214056e+01 1.2314257203e+01 4.9935713700e-03 0.0000e+00 0.0000e+00
       11 -1    0    0    0    0 -3.6547340664e-18 +2.1997504210e-18 -1.6306344880e-15 5.1100000000e-04 5.1099893000e-04 0.0000e+00 1.0000e+00
       50  1    1    2    0    0 +2.5266310907e-02 -1.0693765500e-02 +1.2275494682e+01 1.2275526358e+01 4.9935713700e-03 0.0000e+00 0.0000e+00
       11  1    1    2    0    0 +2.3334841065e-03 -5.9182942551e-03 +3.8719374037e-02 3.9241845021e-02 5.1099893000e-04 0.0000e+00 1.0000e+00
<vert_displacement>
19.948928887776031
</vert_displacement>
</event>
<event>
 4   1200 +8.6263000e+09 6.36493600e-02 7.81665300e-03            nan
       50 -1    0    0    0    0 +2.0086252520e-02 -2.3725798320e-02 +2.1686017781e+01 2.1686040637e+01 4.9935713700e-03 0.0000e+00 0.0000e+00
       11 -1    0    0    0    0 +1.2468397505e-18 -1.4727619514e-18 +1.3461440343e-15 5.1100000000e-04 5.1099893000e-04 0.0000e+00 1.0000e+00
       50  1    1    2    0    0 +5.3503571344e-02 -6.8718692952e-02 +1.6508968228e+01 1.6509198702e+01 4.9935713700e-03 0.0000e+00 0.0000e+00
       11  1    1    2    0    0 -3.3417318825e-02 +4.4992894632e-02 +5.1770495532e+00 5.1773529352e+00 5.1099893000e-04 0.0000e+00 1.0000e+00
<vert_displacement>
17.230031088122281
</vert_displacement>
</event>
<event>
 4   1200 +8.6263000e+09 8.76614700e-03 7.81665300e-03            nan
       50 -1    0    0    0    0 +2.6012129469e-02 -1.6356563560e-02 +1.0567702669e+01 1.0567748521e+01 4.9935713700e-03 0.0000e+00 0.0000e+00
       11 -1    0    0    0    0 -4.6115561064e-19 +2.8997706880e-19 -1.8734934343e-16 5.1100000000e-04 5.1099893000e-04 0.0000e+00 1.0000e+00
       50  1    1    2    0    0 +2.8611811009e-02 -2.2947039358e-02 +1.0516644149e+01 1.0516709290e+01 4.9935713700e-03 0.0000e+00 0.0000e+00
       11  1    1    2    0    0 -2.5996815400e-03 +6.5904757973e-03 +5.1058520012e-02 5.1550230854e-02 5.1099893000e-04 0.0000e+00 1.0000e+00
<vert_displacement>
287.27712476258995
</vert_displacement>
</event>
<event>
 4   1200 +8.6263000e+09 8.55895200e-03 7.81665300e-03            nan
       50 -1    0    0    0    0 +1.6580925590e-02 -2.4503515532e-02 +9.9787041535e+00 9.9787492637e+00 4.9935713700e-03 0.0000e+00 0.0000e+00
       11 -1    0    0    0    0 +3.5050687856e-18 -5.1798379386e-18 +2.1094144750e-15 5.1100000000e-04 5.1099893000e-04 0.0000e+00 1.0000e+00
       50  1    1    2    0    0 +2.3137732354e-02 -2.2316418536e-02 +9.9311895116e+00 9.9312427938e+00 4.9935713700e-03 0.0000e+00 0.0000e+00
       11  1    1    2    0    0 -6.5568067641e-03 -2.1870969967e-03 +4.7514641837e-02 4.8017469915e-02 5.1099893000e-04 0.0000e+00 1.0000e+00
<vert_displacement>
367.43748759644825
</vert_displacement>
</event>
<event>
 4   1200 +8.6263000e+09 9.75214700e-03 7.81665300e-03            nan
       50 -1    0    0    0    0 -9.2605028324e-03 +3.2782991102e-04 +3.6175284990e+00 3.6175438133e+00 4.9935713700e-03 0.0000e+00 0.0000e+00
       11 -1    0    0    0    0 +4.7071420457e-19 -1.6663695114e-20 -1.8388008521e-16 5.1100000000e-04 5.1099893000e-04 0.0000e+00 1.0000e+00
       50  1    1    2    0    0 -1.2537161530e-02 -7.3090520012e-03 +3.5474878425e+00 3.5475210402e+00 4.9935713700e-03 0.0000e+00 0.0000e+00
       11  1    1    2    0    0 +3.2766586978e-03 +7.6368819122e-03 +7.0040656518e-02 7.0533773066e-02 5.1099893000e-04 0.0000e+00 1.0000e+00
<vert_displacement>
62.008107478278312
</vert_displacement>
</event>
<event>
 4   1200 +8.6263000e+09 1.23876400e-02 7.81665300e-03            nan
       50 -1    0    0    0    0 +2.2041799665e-03 -6.1972341271e-03 +3.2269706624e+00 3.2269812295e+00 4.9935713700e-03 0.0000e+00 0.0000e+00
       11 -1    0    0    0    0 +4.7395965940e-20 -1.3325767500e-19 +6.9388794895e-17 5.1100000000e-04 5.1099893000e-04 0.0000e+00 1.0000e+00
       50  1    1    2    0    0 -7.8779112890e-03 -1.1299579684e-02 +3.0958268967e+00 3.0958615686e+00 4.9935713700e-03 0.0000e+00 0.0000e+00
       11  1    1    2    0    0 +1.0082091255e-02 +5.1023455574e-03 +1.3114376574e-01 1.3163066096e-01 5.1099893000e-04 0.0000e+00 1.0000e+00
<vert_displacement>
211.44033188200640
</vert_displacement>
</event>
<event>
 4   1200 +8.6263000e+09 2.52863800e-02 7.81665300e-03            nan
       50 -1    0    0    0    0 +3.4604157932e-02 -2.4185688984e-02 +1.1568677847e+01 1.1568755960e+01 4.9935713700e-03 0.0000e+00 0.0000e+00
       11 -1    0    0    0    0 +7.2644034765e-19 -5.0772685607e-19 +2.4285966945e-16 5.1100000000e-04 5.1099893000e-04 0.0000e+00 1.0000e+00
       50  1    1    2    0    0 +1.5685698976e-02 -4.8291199285e-03 +1.0932431226e+01 1.0932444686e+01 4.9935713700e-03 0.0000e+00 0.0000e+00
       11  1    1    2    0    0 +1.8918458956e-02 -1.9356569056e-02 +6.3624662106e-01 6.3682227410e-01 5.1099893000e-04 0.0000e+00 1.0000e+00
<vert_displacement>
437.91505234713884
</vert_displacement>
</event>
<event>
 4   1200 +8.6263000e+09 1.68956800e-02 7.81665300e-03            nan
       50 -1    0    0    0    0 -1.7369805827e-02 -1.2109959825e-03 +7.0599409289e+00 7.0599641665e+00 4.9935713700e-03 0.0000e+00 0.0000e+00
       11 -1    0    0    0    0 -2.5607906869e-19 -1.7853436386e-20 +1.0408309201e-16 5.1100000000e-04 5.1099893000e-04 0.0000e+00 1.0000e+00
       50  1    1    2    0    0 -2.0969869735e-02 +1.4405257164e-02 +6.7950208949e+00 6.7950703561e+00 4.9935713700e-03 0.0000e+00 0.0000e+00
       11  1    1    2    0    0 +3.6000639077e-03 -1.5616253147e-02 +2.6492003403e-01 2.6540481038e-01 5.1099893000e-04 0.0000e+00 1.0000e+00
<vert_displacement>
285.37193304622463
</vert_displacement>
</event>
<event>
 4   1200 +8.6263000e+09 3.71009000e-02 7.81665300e-03            nan
       50 -1    0    0    0    0 -2.6194856633e-02 -1.3498356024e-02 +9.1560969239e+00 9.1561457062e+00 4.9935713700e-03 0.0000e+00 0.0000e+00
       11 -1    0    0    0    0 +2.1241120373e-18 +1.0945668043e-18 -7.4245780244e-16 5.1100000000e-04 5.1099893000e-04 0.0000e+00 1.0000e+00
       50  1    1    2    0    0 -2.7789439941e-02 -4.7372387694e-02 +7.5516408034e+00 7.5518421697e+00 4.9935713700e-03 0.0000e+00 0.0000e+00
       11  1    1    2    0    0 +1.5945833086e-03 +3.3874031670e-02 +1.6044561205e+00 1.6048145365e+00 5.1099893000e-04 0.0000e+00 1.0000e+00
<vert_displacement>
89.610169011145103
</vert_displacement>
</event>
<event>
 4   1200 +8.6263000e+09 1.03450500e-02 7.81665300e-03            nan
       50 -1    0    0    0    0 +1.7335647265e-02 +1.5100871582e-02 +9.9219152728e+00 9.9219431654e+00 4.9935713700e-03 0.0000e+00 0.0000e+00
       11 -1    0    0    0    0 +7.5166671306e-19 +6.5476773572e-19 +4.3021026712e-16 5.1100000000e-04 5.1099893000e-04 0.0000e+00 1.0000e+00
       50  1    1    2    0    0 +1.0420777000e-02 +2.0994729982e-02 +9.8409341256e+00 9.8409633050e+00 4.9935713700e-03 0.0000e+00 0.0000e+00
       11  1    1    2    0    0 +6.9148702648e-03 -5.8938583997e-03 +8.0981147249e-02 8.1490860392e-02 5.1099893000e-04 0.0000e+00 1.0000e+00
<vert_displacement>
215.98790454610628
</vert_displacement>
</event>
<event>
 4   1200 +8.6263000e+09 7.00972700e-03 7.81665300e-03            nan
       50 -1    0    0    0    0 -1.5503936844e-02 -9.1918261890e-05 +5.2819746191e+00 5.2819997343e+00 4.9935713700e-03 0.0000e+00 0.0000e+00
       11 -1    0    0    0    0 -1.2831416621e-18 -7.6073678918e-21 +4.3714843271e-16 5.1100000000e-04 5.1099893000e-04 0.0000e+00 1.0000e+00
       50  1    1    2    0    0 -2.0131294614e-02 +1.3702653144e-03 +5.2581714617e+00 5.2582125483e+00 4.9935713700e-03 0.0000e+00 0.0000e+00
       11  1    1    2    0    0 +4.6273577709e-03 -1.4621835762e-03 +2.3803157415e-02 2.4298186014e-02 5.1099893000e-04 0.0000e+00 1.0000e+00
<vert_displacement>
32.659947009576229
</vert_displacement>
</event>
<event>
 4   1200 +8.6263000e+09 2.34194000e-02 7.81665300e-03            nan
       50 -1    0    0    0    0 -3.2347021962e-02 -3.2869622167e-03 +1.1908165362e+01 1.1908210796e+01 4.9935713700e-03 0.0000e+00 0.0000e+00
       11 -1    0    0    0    0 +1.3570960029e-18 +1.3790213180e-19 -4.9959849886e-16 5.1100000000e-04 5.1099893000e-04 0.0000e+00 1.0000e+00
       50  1    1    2    0    0 -9.8953818130e-03 -1.2236614852e-02 +1.1371716860e+01 1.1371728845e+01 4.9935713700e-03 0.0000e+00 0.0000e+00
       11  1    1    2    0    0 -2.2451640149e-02 +8.9496526348e-03 +5.3644850248e-01 5.3699295094e-01 5.1099893000e-04 0.0000e+00 1.0000e+00
<vert_displacement>
35.357636875710995
</vert_displacement>
</event>
<event>
 4   1200 +8.6263000e+09 6.14557200e-03 7.81665300e-03            nan
       50 -1    0    0    0    0 -8.7466616404e-03 -7.9386392747e-03 +4.5153178447e+00 4.5153360562e+00 4.9935713700e-03 0.0000e+00 0.0000e+00
       11 -1    0    0    0    0 +8.3336345218e-19 +7.5637678735e-19 -4.3020994997e-16 5.1100000000e-04 5.1099893000e-04 0.0000e+00 1.0000e+00
       50  1    1    2    0    0 -5.1411714854e-03 -8.0059490016e-03 +4.5027318654e+00 4.5027446868e+00 4.9935713700e-03 0.0000e+00 0.0000e+00
       11  1    1    2    0    0 -3.6054901550e-03 +6.7309726875e-05 +1.2585979287e-02 1.3102369418e-02 5.1099893000e-04 0.0000e+00 1.0000e+00
<vert_displacement>
373.62029841530097
</vert_displacement>
</event>
<event>
 4   1200 +8.6263000e+09 2.52281200e-02 7.81665300e-03            nan
       50 -1    0    0    0    0 +6.6242285748e-03 -2.7595486518e-02 +1.9290501832e+01 1.9290523354e+01 4.9935713700e-03 0.0000e+00 0.0000e+00
       11 -1    0    0    0    0 -3.1929076657e-19 +1.3301147363e-18 -9.2981077692e-16 5.1100000000e-04 5.1099893000e-04 0.0000e+00 1.0000e+00
       50  1    1    2    0    0 -1.0335891347e-02 -8.5168584050e-03 +1.8672323336e+01 1.8672328807e+01 4.9935713700e-03 0.0000e+00 0.0000e+00
       11  1    1    2    0    0 +1.6960119922e-02 -1.9078628113e-02 +6.1817849634e-01 6.1870554724e-01 5.1099893000e-04 0.0000e+00 1.0000e+00
<vert_displacement>
462.79355301051510
</vert_displacement>
</event>
<event>
 4   1200 +8.6263000e+09 9.06860800e-03 7.81665300e-03            nan
       50 -1    0    0    0    0 -5.3473275489e-04 -1.5667109110e-02 +1.0813859519e+01 1.0813872034e+01 4.9935713700e-03 0.0000e+00 0.0000e+00
       11 -1    0    0    0    0 +2.3332150419e-20 +6.8360754610e-19 -4.7184428968e-16 5.1100000000e-04 5.1099893000e-04 0.0000e+00 1.0000e+00
       50  1    1    2    0    0 -9.5671873798e-04 -8.0274456698e-03 +1.0757503036e+01 1.0757507233e+01 4.9935713700e-03 0.0000e+00 0.0000e+00
       11  1    1    2    0    0 +4.2198598309e-04 -7.6396634403e-03 +5.6356482382e-02 5.6875801146e-02 5.1099893000e-04 0.0000e+00 1.0000e+00
<vert_displacement>
294.97877955333888
</vert_displacement>
</event>
<event>
 4   1200 +8.6263000e+09 9.41892500e-03 7.81665300e-03            nan
       50 -1    0    0    0    0 -4.7504728702e-04 -4.0080805098e-03 +3.6208895912e+00 3.6208952840e+00 4.9935713700e-03 0.0000e+00 0.0000e+00
       11 -1    0    0    0    0 -7.7380309566e-21 -6.5287502757e-20 +5.8980561541e-17 5.1100000000e-04 5.1099893000e-04 0.0000e+00 1.0000e+00
       50  1    1    2    0    0 -8.2574153517e-03 -2.1812400946e-03 +3.5573518636e+00 3.5573656208e+00 4.9935713700e-03 0.0000e+00 0.0000e+00
       11  1    1    2    0    0 +7.7823680646e-03 -1.8268404152e-03 +6.3537727630e-02 6.4040663261e-02 5.1099893000e-04 0.0000e+00 1.0000e+00
<vert_displacement>
16.058652393718223
</vert_displacement>
</event>
<event>
 4   1200 +8.6263000e+09 1.16795800e-02 7.81665300e-03            nan
       50 -1    0    0    0    0 -1.4549154304e-02 -1.4871826278e-02 +6.3752466019e+00 6.3752825051e+00 4.9935713700e-03 0.0000e+00 0.0000e+00
       11 -1    0    0    0    0 +9.0261708915e-19 +9.2263538246e-19 -3.9551484645e-16 5.1100000000e-04 5.1099893000e-04 0.0000e+00 1.0000e+00
       50  1    1    2    0    0 -2.4370962471e-02 -1.1455734161e-02 +6.2642047644e+00 6.2642646371e+00 4.9935713700e-03 0.0000e+00 0.0000e+00
       11  1    1    2    0    0 +9.8218081672e-03 -3.4160921175e-03 +1.1104183746e-01 1.1152886796e-01 5.1099893000e-04 0.0000e+00 1.0000e+00
<vert_displacement>
85.350014261745301
</vert_displacement>
</event>
<event>
 4   1200 +8.6263000e+09 1.18281400e-02 7.81665300e-03            nan
       50 -1    0    0    0    0 -4.3058520770e-03 +3.2463109946e-03 +3.8633615688e+00 3.8633685594e+00 4.9935713700e-03 0.0000e+00 0.0000e+00
       11 -1    0    0    0    0 -3.6348076443e-19 +2.7403904751e-19 +3.2612769579e-16 5.1100000000e-04 5.1099893000e-04 0.0000e+00 1.0000e+00
       50  1    1    2    0    0 -3.6148640306e-03 +1.3856471663e-02 +3.7473383325e+00 3.7473690215e+00 4.9935713700e-03 0.0000e+00 0.0000e+00
       11  1    1    2    0    0 -6.9098804646e-04 -1.0610160669e-02 +1.1602323628e-01 1.1651053794e-01 5.1099893000e-04 0.0000e+00 1.0000e+00
<vert_displacement>
487.76769469224331
</vert_displacement>
</event>
<event>
 4   1200 +8.6263000e+09 1.44486000e-02 7.81665300e-03            nan
       50 -1    0    0    0    0 +9.8970821472e-03 +1.0590332390e-03 +3.5572411835e+00 3.5572586140e+00 4.9935713700e-03 0.0000e+00 0.0000e+00
       11 -1    0    0    0    0 -7.5291685133e-19 -8.0565560630e-20 -2.7061580287e-16 5.1100000000e-04 5.1099893000e-04 0.0000e+00 1.0000e+00
       50  1    1    2    0    0 +2.0256665933e-02 -7.0762403133e-03 +3.3670880810e+00 3.3671601516e+00 4.9935713700e-03 0.0000e+00 0.0000e+00
       11  1    1    2    0    0 -1.0359583786e-02 +8.1352735523e-03 +1.9015310250e-01 1.9060946242e-01 5.1099893000e-04 0.0000e+00 1.0000e+00
<vert_displacement>
37.132732647728488
</vert_displacement>
</event>
<event>
 4   1200 +8.6263000e+09 1.60950800e-02 7.81665300e-03            nan
       50 -1    0    0    0    0 +3.8532971369e-02 -8.5109773900e-03 +1.2882685198e+01 1.2882746604e+01 4.9935713700e-03 0.0000e+00 0.0000e+00
       11 -1    0    0    0    0 -2.8018706599e-18 +6.1886371564e-19 -9.3674628232e-16 5.1100000000e-04 5.1099893000e-04 0.0000e+00 1.0000e+00
       50  1    1    2    0    0 +4.3148040391e-02 -2.2705627974e-02 +1.2649342153e+01 1.2649437108e+01 4.9935713700e-03 0.0000e+00 0.0000e+00
       11  1    1    2    0    0 -4.6150690216e-03 +1.4194650584e-02 +2.3334304451e-01 2.3382049634e-01 5.1099893000e-04 0.0000e+00 1.0000e+00
<vert_displacement>
308.45906010787803
</vert_displacement>
</event>
<event>
 4   1200 +8.6263000e+09 1.65366300e-02 7.81665300e-03            nan
       50 -1    0    0    0    0 -1.1992818212e-02 -2.4767007084e-03 +3.8334237925e+01 3.8334240207e+01 4.9935713700e-03 0.0000e+00 0.0000e+00
       11 -1    0    0    0    0 +1.7192927160e-18 +3.5506028795e-19 -5.4956036915e-15 5.1100000000e-04 5.1099893000e-04 0.0000e+00 1.0000e+00
       50  1    1    2    0    0 -6.3807358655e-03 -1.7221727594e-02 +3.8089497498e+01 3.8089502253e+01 4.9935713700e-03 0.0000e+00 0.0000e+00
       11  1    1    2    0    0 -5.6120823465e-03 +1.4745026886e-02 +2.4474042736e-01 2.4524895350e-01 5.1099893000e-04 0.0000e+00 1.0000e+00
<vert_displacement>
49.449863572795060
</vert_displacement>
</event>
<event>
 4   1200 +8.6263000e+09 1.32877100e-02 7.81665300e-03            nan
       50 -1    0    0    0    0 -6.1787269760e-03 +5.4566076376e-03 +3.1841493038e+00 3.1841638896e+00 4.9935713700e-03 0.0000e+00 0.0000e+00
       11 -1    0    0    0    0 -7.7421613537e-19 +6.8373205254e-19 +3.9898506246e-16 5.1100000000e-04 5.1099893000e-04 0.0000e+00 1.0000e+00
       50  1    1    2    0    0 +5.8305599566e-03 +9.0084826921e-03 +3.0280682097e+00 3.0280913405e+00 4.9935713700e-03 0.0000e+00 0.0000e+00
       11  1    1    2    0    0 -1.2009286933e-02 -3.5518750545e-03 +1.5608109416e-01 1.5658354914e-01 5.1099893000e-04 0.0000e+00 1.0000e+00
<vert_displacement>
216.04094779660642
</vert_displacement>
</event>
<event>
 4   1200 +8.6263000e+09 1.91870400e-02 7.81665300e-03            nan
       50 -1    0    0    0    0 -3.5616604193e-02 +4.5922817659e-02 +2.0228217948e+01 2.0228302048e+01 4.9935713700e-03 0.0000e+00 0.0000e+00
       11 -1    0    0    0    0 -1.4905384075e-18 +1.9218486728e-18 +8.4654156254e-16 5.1100000000e-04 5.1099893000e-04 0.0000e+00 1.0000e+00
       50  1    1    2    0    0 -5.1628965796e-02 +5.3343948443e-02 +1.9886568621e+01 1.9886707811e+01 4.9935713700e-03 0.0000e+00 0.0000e+00
       11  1    1    2    0    0 +1.6012361603e-02 -7.4211307839e-03 +3.4164932746e-01 3.4210523670e-01 5.1099893000e-04 0.0000e+00 1.0000e+00
<vert_displacement>
401.01797978346571
</vert_displacement>
</event>
<event>
 4   1200 +8.6263000e+09 9.27861600e-03 7.81665300e-03            nan
       50 -1    0    0    0    0 -2.8441070045e-03 -2.9824999215e-03 +1.6627946740e+00 1.6628072792e+00 4.9935713700e-03 0.0000e+00 0.0000e+00
       11 -1    0    0    0    0 -3.0858127447e-19 -3.2359669500e-19 +1.8041068739e-16 5.1100000000e-04 5.1099893000e-04 0.0000e+00 1.0000e+00
       50  1    1    2    0    0 -4.2069486261e-03 +4.8101253026e-03 +1.6005849135e+00 1.6006054595e+00 4.9935713700e-03 0.0000e+00 0.0000e+00
       11  1    1    2    0    0 +1.3628416216e-03 -7.7926252240e-03 +6.2209760440e-02 6.2712819734e-02 5.1099893000e-04 0.0000e+00 1.0000e+00
<vert_displacement>
246.89940945121828
</vert_displacement>
</event>
<event>
 4   1200 +8.6263000e+09 2.57168100e-02 7.81665300e-03            nan
       50 -1    0    0    0    0 -6.0175312064e-02 -5.7055863922e-02 +2.9545508263e+01 2.9545625055e+01 4.9935713700e-03 0.0000e+00 0.0000e+00
       11 -1    0    0    0    0 +1.9785337278e-18 +1.8759678557e-18 -9.7144132036e-16 5.1100000000e-04 5.1099893000e-04 0.0000e+00 1.0000e+00
       50  1    1    2    0    0 -5.9846577546e-02 -8.1035530946e-02 +2.8909009603e+01 2.8909185556e+01 4.9935713700e-03 0.0000e+00 0.0000e+00
       11  1    1    2    0    0 -3.2873451819e-04 +2.3979667024e-02 +6.3649866053e-01 6.3695049924e-01 5.1099893000e-04 0.0000e+00 1.0000e+00
<vert_displacement>
315.11401072970665
</vert_displacement>
</event>
<event>
 4   1200 +8.6263000e+09 6.29225300e-03 7.81665300e-03            nan
       50 -1    0    0    0    0 +2.7007052294e-04 -9.3504402836e-03 +5.9862065956e+00 5.9862159871e+00 4.9935713700e-03 0.0000e+00 0.0000e+00
       11 -1    0    0    0    0 -3.5061720537e-20 +1.2139145011e-18 -7.7715516838e-16 5.1100000000e-04 5.1099893000e-04 0.0000e+00 1.0000e+00
       50  1    1    2    0    0 -6.6411715708e-04 -1.3040820409e-02 +5.9718237777e+00 5.9718401412e+00 4.9935713700e-03 0.0000e+00 0.0000e+00
       11  1    1    2    0    0 +9.3418768002e-04 +3.6903801250e-03 +1.4382817895e-02 1.4886845958e-02 5.1099893000e-04 0.0000e+00 1.0000e+00
<vert_displacement>
412.47036749057537
</vert_displacement>
</event>
<event>
 4   1200 +8.6263000e+09 1.20443600e-02 7.81665300e-03            nan
       50 -1    0    0    0    0 -9.3250767149e-03 +1.2704011553e-02 +7.5139050754e+00 7.5139232607e+00 4.9935713700e-03 0.0000e+00 0.0000e+00
       11 -1    0    0    0    0 +1.7222888767e-19 -2.3463590119e-19 -1.3877757285e-16 5.1100000000e-04 5.1099893000e-04 0.0000e+00 1.0000e+00
       50  1    1    2    0    0 +1.4736210557e-03 +9.9138946561e-03 +7.3944648276e+00 7.3944733064e+00 4.9935713700e-03 0.0000e+00 0.0000e+00
       11  1    1    2    0    0 -1.0798697771e-02 +2.7901168971e-03 +1.1944024782e-01 1.1996095425e-01 5.1099893000e-04 0.0000e+00 1.0000e+00
<vert_displacement>
461.83514842058258
</vert_displacement>
</event>
<event>
 4   1200 +8.6263000e+09 9.11930200e-03 7.81665300e-03            nan
       50 -1    0    0    0    0 +2.6233534800e-02 -5.7550757746e-02 +2.6741669163e+01 2.6741744424e+01 4.9935713700e-03 0.0000e+00 0.0000e+00
       11 -1    0    0    0    0 -3.0495471169e-18 +6.6900533495e-18 -3.1086157743e-15 5.1100000000e-04 5.1099893000e-04 0.0000e+00 1.0000e+00
       50  1    1    2    0    0 +3.1886753981e-02 -5.2365217063e-02 +2.6684578996e+01 2.6684649895e+01 4.9935713700e-03 0.0000e+00 0.0000e+00
       11  1    1    2    0    0 -5.6532191809e-03 -5.1855406831e-03 +5.7090166697e-02 5.7605529011e-02 5.1099893000e-04 0.0000e+00 1.0000e+00
<vert_displacement>
53.731558253883925
</vert_displacement>
</event>
<event>
 4   1200 +8.6263000e+09 7.48029900e-03 7.81665300e-03            nan
       50 -1    0    0    0    0 +1.0385933156e-02 -4.5116456754e-02 +3.6469084663e+01 3.6469114391e+01 4.9935713700e-03 0.0000e+00 0.0000e+00
       11 -1    0    0    0    0 +5.2169236891e-19 -2.2662297984e-18 +1.8318665146e-15 5.1100000000e-04 5.1099893000e-04 0.0000e+00 1.0000e+00
       50  1    1    2    0    0 +6.8095389105e-03 -4.9355594450e-02 +3.6438703275e+01 3.6438737679e+01 4.9935713700e-03 0.0000e+00 0.0000e+00
       11  1    1    2    0    0 +3.5763942450e-03 +4.2391376965e-03 +3.0381387804e-02 3.0887711619e-02 5.1099893000e-04 0.0000e+00 1.0000e+00
<vert_displacement>
99.740257761452142
</vert_displacement>
</event>
<event>
 4   1200 +8.6263000e+09 1.29001600e-02 7.81665300e-03            nan
       50 -1    0    0    0    0 +3.9719428482e-03 -2.2565737487e-02 +1.6498145491e+01 1.6498162158e+01 4.9935713700e-03 0.0000e+00 0.0000e+00
       11 -1    0    0    0    0 -4.0093034871e-20 +2.2777993907e-19 -1.6653329309e-16 5.1100000000e-04 5.1099893000e-04 0.0000e+00 1.0000e+00
       50  1    1    2    0    0 +9.9041119668e-03 -1.2084601781e-02 +1.6358537929e+01 1.6358546153e+01 4.9935713700e-03 0.0000e+00 0.0000e+00
       11  1    1    2    0    0 -5.9321691186e-03 -1.0481135706e-02 +1.3960756219e-01 1.4012700445e-01 5.1099893000e-04 0.0000e+00 1.0000e+00
<vert_displacement>
101.16145084838399
</vert_displacement>
</event>
<event>
 4   1200 +8.6263000e+09 2.04975800e-02 7.81665300e-03            nan
       50 -1    0    0    0    0 -5.1037089166e-02 -2.2388797482e-02 +1.6791496239e+01 1.6791589470e+01 4.9935713700e-03 0.0000e+00 0.0000e+00
       11 -1    0    0    0    0 -3.2900989067e-18 -1.4432907386e-18 +1.0824614868e-15 5.1100000000e-04 5.1099893000e-04 0.0000e+00 1.0000e+00
       50  1    1    2    0    0 -6.9191686370e-02 -1.7337114403e-02 +1.6395370459e+01 1.6395526386e+01 4.9935713700e-03 0.0000e+00 0.0000e+00
       11  1    1    2    0    0 +1.8154597204e-02 -5.0516830793e-03 +3.9612578048e-01 3.9657408385e-01 5.1099893000e-04 0.0000e+00 1.0000e+00
<vert_displacement>
460.33412451041278
</vert_displacement>
</event>
<event>
 4   1200 +8.6263000e+09 1.55843900e-02 7.81665300e-03            nan
       50 -1    0    0    0    0 +7.5650968056e-03 +1.3388749561e-02 +6.3796901904e+00 6.3797106792e+00 4.9935713700e-03 0.0000e+00 0.0000e+00
       11 -1    0    0    0    0 -3.8672455113e-19 -6.8442721847e-19 -3.2612706601e-16 5.1100000000e-04 5.1099893000e-04 0.0000e+00 1.0000e+00
       50  1    1    2    0    0 -5.4296173598e-03 +2.0396032907e-02 +6.1587463355e+00 6.1587845262e+00 4.9935713700e-03 0.0000e+00 0.0000e+00
       11  1    1    2    0    0 +1.2994714165e-02 -7.0072833462e-03 +2.2094385487e-01 2.2143715303e-01 5.1099893000e-04 0.0000e+00 1.0000e+00
<vert_displacement>
153.95972158030909
</vert_displacement>
</event>
<event>
 4   1200 +8.6263000e+09 4.21614500e-02 7.81665300e-03            nan
       50 -1    0    0    0    0 -1.4603826278e-03 +1.2948710997e-02 +7.7980414061e+00 7.7980538924e+00 4.9935713700e-03 0.0000e+00 0.0000e+00
       11 -1    0    0    0    0 +8.1867459095e-20 -7.2589063145e-19 -4.3714970561e-16 5.1100000000e-04 5.1099893000e-04 0.0000e+00 1.0000e+00
       50  1    1    2    0    0 -4.0681918542e-02 -4.5807207741e-03 +5.2437486850e+00 5.2439108696e+00 4.9935713700e-03 0.0000e+00 0.0000e+00
       11  1    1    2    0    0 +3.9221535915e-02 +1.7529431771e-02 +2.5542927212e+00 2.5546540228e+00 5.1099893000e-04 0.0000e+00 1.0000e+00
<vert_displacement>
51.982251860506537
</vert_displacement>
</event>
<event>
 4   1200 +8.6263000e+09 6.82524800e-03 7.81665300e-03            nan
       50 -1    0    0    0    0 +4.1532491794e-02 +2.7008939000e-02 +1.5597267903e+01 1.5597347384e+01 4.9935713700e-03 0.0000e+00 0.0000e+00
       11 -1    0    0    0    0 +3.9170884063e-18 +2.5473165046e-18 +1.4710380869e-15 5.1100000000e-04 5.1099893000e-04 0.0000e+00 1.0000e+00
       50  1    1    2    0    0 +3.6908628911e-02 +2.7859440439e-02 +1.5576066803e+01 1.5576136247e+01 4.9935713700e-03 0.0000e+00 0.0000e+00
       11  1    1    2    0    0 +4.6238628826e-03 -8.5050143837e-04 +2.1201100224e-02 2.1722136894e-02 5.1099893000e-04 0.0000e+00 1.0000e+00
<vert_displacement>
281.63888072820612
</vert_displacement>
</event>
<event>
 4   1200 +8.6263000e+09 1.52445300e-02 7.81665300e-03            nan
       50 -1    0    0    0    0 +3.5177557240e-02 +7.0822909247e-02 +3.4422026658e+01 3.4422117854e+01 4.9935713700e-03 0.0000e+00 0.0000e+00
       11 -1    0    0    0    0 -2.9499297485e-18 -5.9390879656e-18 -2.8865722469e-15 5.1100000000e-04 5.1099893000e-04 0.0000e+00 1.0000e+00
       50  1    1    2    0    0 +4.7508362669e-02 +6.3316086554e-02 +3.4217819692e+01 3.4217911616e+01 4.9935713700e-03 0.0000e+00 0.0000e+00
       11  1    1    2    0    0 -1.2330805429e-02 +7.5068226928e-03 +2.0420696663e-01 2.0471723789e-01 5.1099893000e-04 0.0000e+00 1.0000e+00
<vert_displacement>
150.13565997981090
</vert_displacement>
</event>
<event>
 4   1200 +8.6263000e+09 9.79084400e-03 7.81665300e-03            nan
       50 -1    0    0    0    0 -4.5039648863e-02 +6.7285407556e-02 +3.8990792378e+01 3.8990876767e+01 4.9935713700e-03 0.0000e+00 0.0000e+00
       11 -1    0    0    0    0 +1.9557442949e-18 -2.9217157610e-18 -1.6930864620e-15 5.1100000000e-04 5.1099893000e-04 0.0000e+00 1.0000e+00
       50  1    1    2    0    0 -5.3358740161e-02 +6.6553159266e-02 +3.8921260821e+01 3.8921354618e+01 4.9935713700e-03 0.0000e+00 0.0000e+00
       11  1    1    2    0    0 +8.3190912978e-03 +7.3224828993e-04 +6.9531556725e-02 7.0033149066e-02 5.1099893000e-04 0.0000e+00 1.0000e+00
<vert_displacement>
5.1804110345926571
</vert_displacement>
</event>
<event>
 4   1200 +8.6263000e+09 5.51206200e-03 7.81665300e-03            nan
       50 -1    0    0    0    0 -1.7494534282e-01 -4.5437415845e-02 +5.3209296348e+01 5.3209603581e+01 4.9935713700e-03 0.0000e+00 0.0000e+00
       11 -1    0    0    0    0 +4.6996967065e-18 +1.2206216533e-18 -1.4294038971e-15 5.1100000000e-04 5.1099893000e-04 0.0000e+00 1.0000e+00
       50  1    1    2    0    0 -1.7289490827e-01 -4.4286436944e-02 +5.3203973641e+01 5.3204273231e+01 4.9935713700e-03 0.0000e+00 0.0000e+00
       11  1    1    2    0    0 -2.0504345526e-03 -1.1509789015e-03 +5.3227074488e-03 5.8413499106e-03 5.1099893000e-04 0.0000e+00 1.0000e+00
<vert_displacement>
92.669395816559003
</vert_displacement>
</event>
<event>
 4   1200 +8.6263000e+09 1.53331800e-02 7.81665300e-03            nan
       50 -1    0    0    0    0 -2.5275377752e-02 +1.6983158561e-02 +7.2806809474e+00 7.2807463399e+00 4.9935713700e-03 0.0000e+00 0.0000e+00
       11 -1    0    0    0    0 -2.0475335634e-18 +1.3757890192e-18 +5.8980082317e-16 5.1100000000e-04 5.1099893000e-04 0.0000e+00 1.0000e+00
       50  1    1    2    0    0 -1.6928156472e-02 +2.8827203246e-02 +7.0688352483e+00 7.0689160607e+00 4.9935713700e-03 0.0000e+00 0.0000e+00
       11  1    1    2    0    0 -8.3472212793e-03 -1.1844044685e-02 +2.1184569909e-01 2.1234127917e-01 5.1099893000e-04 0.0000e+00 1.0000e+00
<vert_displacement>
203.32700805099174
</vert_displacement>
</event>
<event>
 4   1200 +8.6263000e+09 1.62881900e-02 7.81665300e-03            nan
       50 -1    0    0    0    0 +2.6315125602e-02 +2.3899997198e-02 +1.3287739650e+01 1.3287788139e+01 4.9935713700e-03 0.0000e+00 0.0000e+00
       11 -1    0    0    0    0 +1.6902390902e-18 +1.5351136882e-18 +8.5348089594e-16 5.1100000000e-04 5.1099893000e-04 0.0000e+00 1.0000e+00
       50  1    1    2    0    0 +2.5092260231e-02 +3.8954914206e-02 +1.3048184416e+01 1.3048267647e+01 4.9935713700e-03 0.0000e+00 0.0000e+00
       11  1    1    2    0    0 +1.2228653717e-03 -1.5054917008e-02 +2.3955523390e-01 2.4003149196e-01 5.1099893000e-04 0.0000e+00 1.0000e+00
<vert_displacement>
182.77862511304258
</vert_displacement>
</event>
<event>
 4   1200 +8.6263000e+09 1.60622700e-02 7.81665300e-03            nan
       50 -1    0    0    0    0 -9.5658612607e-03 +5.1241877571e-03 +4.0882979426e+00 4.0883153947e+00 4.9935713700e-03 0.0000e+00 0.0000e+00
       11 -1    0    0    0    0 +1.1364970078e-19 -6.0879244375e-20 -4.8572086216e-17 5.1100000000e-04 5.1099893000e-04 0.0000e+00 1.0000e+00
       50  1    1    2    0    0 -6.1346217095e-03 +1.9815509183e-02 +3.8457396430e+00 3.8457988280e+00 4.9935713700e-03 0.0000e+00 0.0000e+00
       11  1    1    2    0    0 -3.4312395511e-03 -1.4691321426e-02 +2.4255829958e-01 2.4302756664e-01 5.1099893000e-04 0.0000e+00 1.0000e+00
<vert_displacement>
306.77471347951769
</vert_displacement>
</event>
<event>
 4   1200 +8.6263000e+09 6.13610300e-02 7.81665300e-03            nan
       50 -1    0    0    0    0 +4.1805664273e-02 +7.0485543216e-03 +1.5044271535e+01 1.5044332101e+01 4.9935713700e-03 0.0000e+00 0.0000e+00
       11 -1    0    0    0    0 +1.4654333811e-18 +2.4707625081e-19 +5.2735384272e-16 5.1100000000e-04 5.1099893000e-04 0.0000e+00 1.0000e+00
       50  1    1    2    0    0 +2.6380505204e-02 -5.7030505990e-02 +8.7300406140e+00 8.7302681784e+00 4.9935713700e-03 0.0000e+00 0.0000e+00
       11  1    1    2    0    0 +1.5425159070e-02 +6.4079060312e-02 +6.3142309213e+00 6.3145749223e+00 5.1099893000e-04 0.0000e+00 1.0000e+00
<vert_displacement>
31.339736299310186
</vert_displacement>
</event>
<event>
 4   1200 +8.6263000e+09 3.64785600e-02 7.81665300e-03            nan
       50 -1    0    0    0    0 +3.7806105115e-02 +3.5984666952e-02 +2.4810166932e+01 2.4810222336e+01 4.9935713700e-03 0.0000e+00 0.0000e+00
       11 -1    0    0    0    0 -4.9272823999e-18 -4.6898937513e-18 -3.2335174040e-15 5.1100000000e-04 5.1099893000e-04 0.0000e+00 1.0000e+00
       50  1    1    2    0    0 +4.9314560560e-04 +2.6092666319e-02 +2.3458892179e+01 2.3458907226e+01 4.9935713700e-03 0.0000e+00 0.0000e+00
       11  1    1    2    0    0 +3.7312959509e-02 +9.8920006331e-03 +1.3512747538e+00 1.3518261094e+00 5.1099893000e-04 0.0000e+00 1.0000e+00
<vert_displacement>
269.95563638998618
</vert_displacement>
</event>
<event>
 4   1200 +8.6263000e+09 5.85010200e-03 7.81665300e-03            nan
       50 -1    0    0    0    0 +1.7337847425e-02 -1.4894449359e-02 +8.7567160020e+00 8.7567472569e+00 4.9935713700e-03 0.0000e+00 0.0000e+00
       11 -1    0    0    0    0 -1.2364745704e-18 +1.0622199758e-18 -6.2449832390e-16 5.1100000000e-04 5.1099893000e-04 0.0000e+00 1.0000e+00
       50  1    1    2    0    0 +2.0270975260e-02 -1.4118259638e-02 +8.7476134674e+00 8.7476497729e+00 4.9935713700e-03 0.0000e+00 0.0000e+00
       11  1    1    2    0    0 -2.9331278358e-03 -7.7618972129e-04 +9.1025345775e-03 9.6084840129e-03 5.1099893000e-04 0.0000e+00 1.0000e+00
<vert_displacement>
69.021556964767868
</vert_displacement>
</event>
<event>
 4   1200 +8.6263000e+09 3.67957800e-02 7.81665300e-03            nan
       50 -1    0    0    0    0 +6.8399187715e-02 +2.7234296446e-02 +2.0684318471e+01 2.0684450094e+01 4.9935713700e-03 0.0000e+00 0.0000e+00
       11 -1    0    0    0    0 +9.3158665395e-18 +3.7092702336e-18 +2.8171730802e-15 5.1100000000e-04 5.1099893000e-04 0.0000e+00 1.0000e+00
       50  1    1    2    0    0 +9.9919283062e-02 +2.0551496606e-02 +1.9289666594e+01 1.9289936974e+01 4.9935713700e-03 0.0000e+00 0.0000e+00
       11  1    1    2    0    0 -3.1520095347e-02 +6.6827998401e-03 +1.3946518775e+00 1.3950241204e+00 5.1099893000e-04 0.0000e+00 1.0000e+00
<vert_displacement>
257.84083610923210
</vert_displacement>
</event>
<event>
 4   1200 +8.6263000e+09 9.06884600e-03 7.81665300e-03            nan
       50 -1    0    0    0    0 +6.5257610369e-03 -9.6414751355e-03 +6.1588548117e+00 6.1588678400e+00 4.9935713700e-03 0.0000e+00 0.0000e+00
       11 -1    0    0    0    0 +8.8227082387e-20 -1.3035096080e-19 +8.3266578075e-17 5.1100000000e-04 5.1099893000e-04 0.0000e+00 1.0000e+00
       50  1    1    2    0    0 -1.3103990406e-04 -1.3266368032e-02 +6.1022546188e+00 6.1022710840e+00 4.9935713700e-03 0.0000e+00 0.0000e+00
       11  1    1    2    0    0 +6.6568009409e-03 +3.6248928964e-03 +5.6600192859e-02 5.7107756031e-02 5.1099893000e-04 0.0000e+00 1.0000e+00
<vert_displacement>
410.33338308259948
</vert_displacement>
</event>
<event>
 4   1200 +8.6263000e+09 7.92928100e-03 7.81665300e-03            nan
       50 -1    0    0    0    0 +4.0658628053e-02 +2.3719401224e-02 +1.5069305553e+01 1.5069379898e+01 4.9935713700e-03 0.0000e+00 0.0000e+00
       11 -1    0    0    0    0 +2.4712776459e-18 +1.4416921777e-18 +9.1592952681e-16 5.1100000000e-04 5.1099893000e-04 0.0000e+00 1.0000e+00
       50  1    1    2    0    0 +3.8055509747e-02 +1.8032865095e-02 +1.5032106962e+01 1.5032166778e+01 4.9935713700e-03 0.0000e+00 0.0000e+00
       11  1    1    2    0    0 +2.6031183057e-03 +5.6865361294e-03 +3.7198591652e-02 3.7724120386e-02 5.1099893000e-04 0.0000e+00 1.0000e+00
<vert_displacement>
423.63331760896619
</vert_displacement>
</event>
<event>
 4   1200 +8.6263000e+09 1.26151400e-02 7.81665300e-03            nan
       50 -1    0    0    0    0 +1.0008191485e-01 -7.4960440778e-02 +3.0901118427e+01 3.0901371821e+01 4.9935713700e-03 0.0000e+00 0.0000e+00
       11 -1    0    0    0    0 +9.4388131638e-18 -7.0695849120e-18 +2.9143115799e-15 5.1100000000e-04 5.1099893000e-04 0.0000e+00 1.0000e+00
       50  1    1    2    0    0 +1.0677615536e-01 -8.3777807766e-02 +3.0769191732e+01 3.0769491459e+01 4.9935713700e-03 0.0000e+00 0.0000e+00
       11  1    1    2    0    0 -6.6942405082e-03 +8.8173669877e-03 +1.3192669450e-01 1.3239136172e-01 5.1099893000e-04 0.0000e+00 1.0000e+00
<vert_displacement>
327.28939980698647
</vert_displacement>
</event>
<event>
 4   1200 +8.6263000e+09 2.68475800e-02 7.81665300e-03            nan
       50 -1    0    0    0    0 +4.0327365022e-02 -2.4177395623e-02 +1.7907703245e+01 1.7907765670e+01 4.9935713700e-03 0.0000e+00 0.0000e+00
       11 -1    0    0    0    0 +1.3750908100e-18 -8.2440582252e-19 +6.1062055871e-16 5.1100000000e-04 5.1099893000e-04 0.0000e+00 1.0000e+00
       50  1    1    2    0    0 +6.4052402361e-02 -3.0613711373e-02 +1.7198633069e+01 1.7198780314e+01 4.9935713700e-03 0.0000e+00 0.0000e+00
       11  1    1    2    0    0 -2.3725037339e-02 +6.4363157505e-03 +7.0907017565e-01 7.0949635565e-01 5.1099893000e-04 0.0000e+00 1.0000e+00
<vert_displacement>
324.40604334734593
</vert_displacement>
</event>
<event>
 4   1200 +8.6263000e+09 1.29331600e-02 7.81665300e-03            nan
       50 -1    0    0    0    0 +1.9120790150e-03 -5.3346499812e-03 +2.4758294123e+00 2.4758409337e+00 4.9935713700e-03 0.0000e+00 0.0000e+00
       11 -1    0    0    0    0 -2.3847026684e-19 +6.6532574991e-19 -3.0877996985e-16 5.1100000000e-04 5.1099893000e-04 0.0000e+00 1.0000e+00
       50  1    1    2    0    0 -1.8978700586e-03 -1.6358653201e-02 +2.3275473050e+00 2.3276109212e+00 4.9935713700e-03 0.0000e+00 0.0000e+00
       11  1    1    2    0    0 +3.8099490736e-03 +1.1024003220e-02 +1.4828210726e-01 1.4874101255e-01 5.1099893000e-04 0.0000e+00 1.0000e+00
<vert_displacement>
84.023055000562010
</vert_displacement>
</event>
<event>
 4   1200 +8.6263000e+09 1.08090300e-02 7.81665300e-03            nan
       50 -1    0    0    0    0 -2.3810746915e-03 +2.6433004024e-03 +1.4215706915e+00 1.4215839135e+00 4.9935713700e-03 0.0000e+00 0.0000e+00
       11 -1    0    0    0    0 -1.8014621563e-19 +1.9998556365e-19 +1.0755251871e-16 5.1100000000e-04 5.1099893000e-04 0.0000e+00 1.0000e+00
       50  1    1    2    0    0 -9.5551368597e-03 -3.7075815641e-03 +1.3249357012e+00 1.3249847527e+00 4.9935713700e-03 0.0000e+00 0.0000e+00
       11  1    1    2    0    0 +7.1740621682e-03 +6.3508819665e-03 +9.6634990314e-02 9.7110160862e-02 5.1099893000e-04 0.0000e+00 1.0000e+00
<vert_displacement>
273.07372370432051
</vert_displacement>
</event>
<event>
 4   1200 +8.6263000e+09 6.71956100e-03 7.81665300e-03            nan
       50 -1    0    0    0    0 -5.3945613230e-02 +4.1322832924e-03 +1.6218291881e+01 1.6218382893e+01 4.9935713700e-03 0.0000e+00 0.0000e+00
       11 -1    0    0    0    0 +5.5392388797e-19 -4.2431076235e-20 -1.6653252705e-16 5.1100000000e-04 5.1099893000e-04 0.0000e+00 1.0000e+00
       50  1    1    2    0    0 -5.3887635132e-02 +8.6235327613e-03 +1.6198484425e+01 1.6198577124e+01 4.9935713700e-03 0.0000e+00 0.0000e+00
       11  1    1    2    0    0 -5.7978098591e-05 -4.4912494689e-03 +1.9807456003e-02 2.0316769341e-02 5.1099893000e-04 0.0000e+00 1.0000e+00
<vert_displacement>
309.43801325720159
</vert_displacement>
</event>
<event>
 4   1200 +8.6263000e+09 2.52895000e-02 7.81665300e-03            nan
       50 -1    0    0    0    0 -8.2758436823e-03 -2.2187652294e-02 +1.0827386871e+01 1.0827413919e+01 4.9935713700e-03 0.0000e+00 0.0000e+00
       11 -1    0    0    0    0 +2.2275482661e-19 +5.9720879580e-19 -2.9143284693e-16 5.1100000000e-04 5.1099893000e-04 0.0000e+00 1.0000e+00
       50  1    1    2    0    0 -3.1412036621e-02 -1.3361590715e-02 +1.0188140102e+01 1.0188198512e+01 4.9935713700e-03 0.0000e+00 0.0000e+00
       11  1    1    2    0    0 +2.3136192938e-02 -8.8260615795e-03 +6.3924676894e-01 6.3972640676e-01 5.1099893000e-04 0.0000e+00 1.0000e+00
<vert_displacement>
400.38592017964186
</vert_displacement>
</event>
<event>
 4   1200 +8.6263000e+09 6.45335700e-03 7.81665300e-03            nan
       50 -1    0    0    0    0 +1.0446690915e-02 +7.6625436497e-03 +3.4535165236e+00 3.4535444347e+00 4.9935713700e-03 0.0000e+00 0.0000e+00
       11 -1    0    0    0    0 +1.2173974620e-18 +8.9294890290e-19 +4.0245301454e-16 5.1100000000e-04 5.1099893000e-04 0.0000e+00 1.0000e+00
       50  1    1    2    0    0 +6.3137778276e-03 +7.4329497967e-03 +3.4370979050e+00 3.4371153686e+00 4.9935713700e-03 0.0000e+00 0.0000e+00
       11  1    1    2    0    0 +4.1329130874e-03 +2.2959385304e-04 +1.6418618537e-02 1.6940066071e-02 5.1099893000e-04 0.0000e+00 1.0000e+00
<vert_displacement>
357.08058801593432
</vert_displacement>
</event>
<event>
 4   1200 +8.6263000e+09 9.09437100e-03 7.81665300e-03            nan
       50 -1    0    0    0    0 -7.0156584000e-03 +1.0648314216e-02 +1.6695939552e+01 1.6695945168e+01 4.9935713700e-03 0.0000e+00 0.0000e+00
       11 -1    0    0    0    0 -2.3909007255e-19 +3.6288913646e-19 +5.6898913417e-16 5.1100000000e-04 5.1099893000e-04 0.0000e+00 1.0000e+00
       50  1    1    2    0    0 -1.0819798964e-02 +4.0456752726e-03 +1.6639219216e+01 1.6639223975e+01 4.9935713700e-03 0.0000e+00 0.0000e+00
       11  1    1    2    0    0 +3.8041405641e-03 +6.6026389439e-03 +5.6720335400e-02 5.7232192814e-02 5.1099893000e-04 0.0000e+00 1.0000e+00
<vert_displacement>
62.269910705528432
</vert_displacement>
</event>
<event>
 4   1200 +8.6263000e+09 2.69348900e-02 7.81665300e-03            nan
       50 -1    0    0    0    0 +4.2980922419e-03 +4.7315914203e-04 +8.9091716593e+00 8.9091741081e+00 4.9935713700e-03 0.0000e+00 0.0000e+00
       11 -1    0    0    0    0 +4.7870133462e-19 +5.2698243786e-20 +9.9226171139e-16 5.1100000000e-04 5.1099893000e-04 0.0000e+00 1.0000e+00
       50  1    1    2    0    0 +2.5285054748e-02 +1.6079840656e-02 +8.1605800506e+00 8.1606365924e+00 4.9935713700e-03 0.0000e+00 0.0000e+00
       11  1    1    2    0    0 -2.0986962506e-02 -1.5606681513e-02 +7.4859160867e-01 7.4904851565e-01 5.1099893000e-04 0.0000e+00 1.0000e+00
<vert_displacement>
123.56369162608181
</vert_displacement>
</event>
<event>
 4   1200 +8.6263000e+09 6.58441900e-03 7.81665300e-03            nan
       50 -1    0    0    0    0 +7.6534013157e-02 -1.3211105735e-02 +3.1544609403e+01 3.1544705408e+01 4.9935713700e-03 0.0000e+00 0.0000e+00
       11 -1    0    0    0    0 +5.6902973804e-18 -9.8224458979e-19 +2.3453390309e-15 5.1100000000e-04 5.1099893000e-04 0.0000e+00 1.0000e+00
       50  1    1    2    0    0 +8.0521089371e-02 -1.1730068128e-02 +3.1526567362e+01 3.1526672768e+01 4.9935713700e-03 0.0000e+00 0.0000e+00
       11  1    1    2    0    0 -3.9870762134e-03 -1.4810376072e-03 +1.8042040623e-02 1.8543640389e-02 5.1099893000e-04 0.0000e+00 1.0000e+00
<vert_displacement>
133.87801097686031
</vert_displacement>
</event>
<event>
 4   1200 +8.6263000e+09 1.02955500e-02 7.81665300e-03            nan
       50 -1    0    0    0    0 +1.8022721585e-02 -1.4266679605e-02 +8.9090500294e+00 8.9090810816e+00 4.9935713700e-03 0.0000e+00 0.0000e+00
       11 -1    0    0    0    0 +5.6148449627e-19 -4.4446779991e-19 +2.7755483235e-16 5.1100000000e-04 5.1099893000e-04 0.0000e+00 1.0000e+00
       50  1    1    2    0    0 +1.5475591949e-02 -2.2820280322e-02 +8.8289979758e+00 8.8290424425e+00 4.9935713700e-03 0.0000e+00 0.0000e+00
       11  1    1    2    0    0 +2.5471296363e-03 +8.5536007168e-03 +8.0052053518e-02 8.0549639024e-02 5.1099893000e-04 0.0000e+00 1.0000e+00
<vert_displacement>
205.83501422431650
</vert_displacement>
</event>
<event>
 4   1200 +8.6263000e+09 5.40417500e-03 7.81665300e-03            nan
       50 -1    0    0    0    0 -1.6306297137e-02 +1.2661219412e-02 +1.1551320258e+01 1.1551339785e+01 4.9935713700e-03 0.0000e+00 0.0000e+00
       11 -1    0    0    0    0 +1.4203039109e-18 -1.1028119565e-18 -1.0061380092e-15 5.1100000000e-04 5.1099893000e-04 0.0000e+00 1.0000e+00
       50  1    1    2    0    0 -1.5003619216e-02 +1.4265277532e-02 +1.1547141183e+01 1.1547160822e+01 4.9935713700e-03 0.0000e+00 0.0000e+00
       11  1    1    2    0    0 -1.3026779202e-03 -1.6040581203e-03 +4.1790745658e-03 4.6899633634e-03 5.1099893000e-04 0.0000e+00 1.0000e+00
<vert_displacement>
403.13791047097760
</vert_displacement>
</event>
<event>
 4   1200 +8.6263000e+09 5.76786600e-03 7.81665300e-03            nan
       50 -1    0    0    0    0 +7.2356543351e-02 +1.3579436445e-02 +3.1149634497e+01 3.1149721894e+01 4.9935713700e-03 0.0000e+00 0.0000e+00
       11 -1    0    0    0    0 -1.6504936095e-17 -3.0975461285e-18 -7.1054075130e-15 5.1100000000e-04 5.1099893000e-04 0.0000e+00 1.0000e+00
       50  1    1    2    0    0 +7.5002923877e-02 +1.2467489015e-02 +3.1141473391e+01 3.1141566608e+01 4.9935713700e-03 0.0000e+00 0.0000e+00
       11  1    1    2    0    0 -2.6463805263e-03 +1.1119474303e-03 +8.1611057274e-03 8.6662866083e-03 5.1099893000e-04 0.0000e+00 1.0000e+00
<vert_displacement>
177.01441313620666
</vert_displacement>
</event>
<event>
 4   1200 +8.6263000e+09 8.39965800e-03 7.81665300e-03            nan
       50 -1    0    0    0    0 -1.8378088205e-02 -2.5277197493e-02 +1.0421589518e+01 1.0421637573e+01 4.9935713700e-03 0.0000e+00 0.0000e+00
       11 -1    0    0    0    0 -1.0768056728e-18 -1.4810370562e-18 +6.1061991799e-16 5.1100000000e-04 5.1099893000e-04 0.0000e+00 1.0000e+00
       50  1    1    2    0    0 -2.3290965881e-02 -2.9718039228e-02 +1.0376737883e+01 1.0376807778e+01 4.9935713700e-03 0.0000e+00 0.0000e+00
       11  1    1    2    0    0 +4.9128776764e-03 +4.4408417350e-03 +4.4851634727e-02 4.5340795097e-02 5.1099893000e-04 0.0000e+00 1.0000e+00
<vert_displacement>
181.46457903882296
</vert_displacement>
</event>
<event>
 4   1200 +8.6263000e+09 1.59807800e-02 7.81665300e-03            nan
       50 -1    0    0    0    0 -8.1230808628e-03 -1.4780379885e-02 +9.9067854078e+00 9.9068010223e+00 4.9935713700e-03 0.0000e+00 0.0000e+00
       11 -1    0    0    0    0 -2.3896094604e-19 -4.3480221603e-19 +2.9143312165e-16 5.1100000000e-04 5.1099893000e-04 0.0000e+00 1.0000e+00
       50  1    1    2    0    0 +7.2108956768e-03 -1.5479401195e-02 +9.6759016125e+00 9.6759179698e+00 4.9935713700e-03 0.0000e+00 0.0000e+00
       11  1    1    2    0    0 -1.5333976540e-02 +6.9902130951e-04 +2.3088379533e-01 2.3139405250e-01 5.1099893000e-04 0.0000e+00 1.0000e+00
<vert_displacement>
113.79429051664656
</vert_displacement>
</event>
<event>
 4   1200 +8.6263000e+09 1.56788900e-02 7.81665300e-03            nan
       50 -1    0    0    0    0 -8.6133391735e-02 +9.2725173900e-04 +3.3895108270e+01 3.3895218091e+01 4.9935713700e-03 0.0000e+00 0.0000e+00
       11 -1    0    0    0    0 -1.6222253947e-18 +1.7463741854e-20 +6.3837617774e-16 5.1100000000e-04 5.1099893000e-04 0.0000e+00 1.0000e+00
       50  1    1    2    0    0 -8.9798358949e-02 +1.5172694562e-02 +3.3677560585e+01 3.3677684092e+01 4.9935713700e-03 0.0000e+00 0.0000e+00
       11  1    1    2    0    0 +3.6649672141e-03 -1.4245442823e-02 +2.1754768579e-01 2.1804499843e-01 5.1099893000e-04 0.0000e+00 1.0000e+00
<vert_displacement>
376.50000436754823
</vert_displacement>
</event>
<event>
 4   1200 +8.6263000e+09 2.76163000e-02 7.81665300e-03            nan
       50 -1    0    0    0    0 -7.0570003567e-03 +2.9546359409e-02 +2.9033395779e+01 2.9033412100e+01 4.9935713700e-03 0.0000e+00 0.0000e+00
       11 -1    0    0    0    0 +5.4308547318e-19 -2.2737987487e-18 -2.2343226141e-15 5.1100000000e-04 5.1099893000e-04 0.0000e+00 1.0000e+00
       50  1    1    2    0    0 -2.8762639036e-03 +5.5657312028e-02 +2.8292597205e+01 2.8292652537e+01 4.9935713700e-03 0.0000e+00 0.0000e+00
       11  1    1    2    0    0 -4.1807364532e-03 -2.6110952618e-02 +7.4079857339e-01 7.4127056320e-01 5.1099893000e-04 0.0000e+00 1.0000e+00
<vert_displacement>
265.92325818765335
</vert_displacement>
</event>
<event>
 4   1200 +8.6263000e+09 3.33514700e-02 7.81665300e-03            nan
       50 -1    0    0    0    0 -3.5466295587e-02 +3.3692826972e-02 +1.3200592129e+01 1.3200683716e+01 4.9935713700e-03 0.0000e+00 0.0000e+00
       11 -1    0    0    0    0 +2.4421985978e-18 -2.3200780749e-18 -9.0898885983e-16 5.1100000000e-04 5.1099893000e-04 0.0000e+00 1.0000e+00
       50  1    1    2    0    0 -2.7845630109e-02 -1.9560141099e-03 +1.2033239643e+01 1.2033273056e+01 4.9935713700e-03 0.0000e+00 0.0000e+00
       11  1    1    2    0    0 -7.6206654782e-03 +3.5648841082e-02 +1.1673524866e+00 1.1679216599e+00 5.1099893000e-04 0.0000e+00 1.0000e+00
<vert_displacement>
36.602502561437440
</vert_displacement>
</event>
<event>
 4   1200 +8.6263000e+09 1.05522300e-02 7.81665300e-03            nan
       50 -1    0    0    0    0 +1.3617414634e-02 +1.8611061488e-02 +1.1462149603e+01 1.1462173889e+01 4.9935713700e-03 0.0000e+00 0.0000e+00
       11 -1    0    0    0    0 +1.4014153769e-19 +1.9153288969e-19 +1.1796095762e-16 5.1100000000e-04 5.1099893000e-04 0.0000e+00 1.0000e+00
       50  1    1    2    0    0 +1.7044564596e-02 +9.8724874896e-03 +1.1376967735e+01 1.1376985882e+01 4.9935713700e-03 0.0000e+00 0.0000e+00
       11  1    1    2    0    0 -3.4271499612e-03 +8.7385739984e-03 +8.5181868513e-02 8.5699007437e-02 5.1099893000e-04 0.0000e+00 1.0000e+00
<vert_displacement>
293.60681590724016
</vert_displacement>
</event>
<event>
 4   1200 +8.6263000e+09 3.57309300e-02 7.81665300e-03            nan
       50 -1    0    0    0    0 +1.2194856278e-02 +1.0898202808e-05 +5.2239322236e+00 5.2239488443e+00 4.9935713700e-03 0.0000e+00 0.0000e+00
       11 -1    0    0    0    0 +4.2115461537e-19 +3.7637412917e-22 +1.8041074993e-16 5.1100000000e-04 5.1099893000e-04 0.0000e+00 1.0000e+00
       50  1    1    2    0    0 +4.0493893310e-02 +1.2994354336e-02 +3.2485692709e+00 3.2488514666e+00 4.9935713700e-03 0.0000e+00 0.0000e+00
       11  1    1    2    0    0 -2.8299037032e-02 -1.2983456133e-02 +1.9753629528e+00 1.9756083777e+00 5.1099893000e-04 0.0000e+00 1.0000e+00
<vert_displacement>
96.702980736205447
</vert_displacement>
</event>
<event>
 4   1200 +8.6263000e+09 2.37273500e-02 7.81665300e-03            nan
       50 -1    0    0    0    0 -5.3995115625e-02 -3.6808156266e-02 +1.6847914312e+01 1.6848041783e+01 4.9935713700e-03 0.0000e+00 0.0000e+00
       11 -1    0    0    0    0 +3.3801727696e-18 +2.3042441167e-18 -1.0547039399e-15 5.1100000000e-04 5.1099893000e-04 0.0000e+00 1.0000e+00
       50  1    1    2    0    0 -6.7855889714e-02 -5.2781791997e-02 +1.6303750669e+01 1.6303978077e+01 4.9935713700e-03 0.0000e+00 0.0000e+00
       11  1    1    2    0    0 +1.3860774089e-02 +1.5973635731e-02 +5.4416364355e-01 5.4457470579e-01 5.1099893000e-04 0.0000e+00 1.0000e+00
<vert_displacement>
267.36335401030937
</vert_displacement>
</event>
<event>
 4   1200 +8.6263000e+09 1.82573400e-02 7.81665300e-03            nan
       50 -1    0    0    0    0 -5.4807391073e-03 -8.8964078633e-05 +3.3691294023e+00 3.3691375620e+00 4.9935713700e-03 0.0000e+00 0.0000e+00
       11 -1    0    0    0    0 -3.8378679427e-19 -6.2296777635e-21 +2.3592208049e-16 5.1100000000e-04 5.1099893000e-04 0.0000e+00 1.0000e+00
       50  1    1    2    0    0 +3.5438433993e-03 -1.5458752664e-02 +3.0337046479e+00 3.0337502136e+00 4.9935713700e-03 0.0000e+00 0.0000e+00
       11  1    1    2    0    0 -9.0245825065e-03 +1.5369788586e-02 +3.3542475436e-01 3.3589834838e-01 5.1099893000e-04 0.0000e+00 1.0000e+00
<vert_displacement>
105.81914184629714
</vert_displacement>
</event>
<event>
 4   1200 +8.6263000e+09 2.45811200e-02 7.81665300e-03            nan
       50 -1    0    0    0    0 -1.5702981505e-01 -1.2851706490e-01 +4.9470801738e+01 4.9471218143e+01 4.9935713700e-03 0.0000e+00 0.0000e+00
       11 -1    0    0    0    0 -2.0175078720e-17 -1.6511780903e-17 +6.3559733490e-15 5.1100000000e-04 5.1099893000e-04 0.0000e+00 1.0000e+00
       50  1    1    2    0    0 -1.4607935609e-01 -1.4929687702e-01 +4.8897294981e+01 4.8897741360e+01 4.9935713700e-03 0.0000e+00 0.0000e+00
       11  1    1    2    0    0 -1.0950458959e-02 +2.0779812115e-02 +5.7350675779e-01 5.7398778340e-01 5.1099893000e-04 0.0000e+00 1.0000e+00
<vert_displacement>
166.49585281413198
</vert_displacement>
</event>
<event>
 4   1200 +8.6263000e+09 7.07852400e-03 7.81665300e-03            nan
       50 -1    0    0    0    0 -2.2308850310e-02 -9.6135246300e-03 +1.1333624166e+01 1.1333651300e+01 4.9935713700e-03 0.0000e+00 0.0000e+00
       11 -1    0    0    0    0 +1.3658330960e-20 +5.8857672749e-21 -6.9388779653e-18 5.1100000000e-04 5.1099893000e-04 0.0000e+00 1.0000e+00
       50  1    1    2    0    0 -2.7199273668e-02 -1.0473397400e-02 +1.1308930847e+01 1.1308969507e+01 4.9935713700e-03 0.0000e+00 0.0000e+00
       11  1    1    2    0    0 +4.8904233582e-03 +8.5987277044e-04 +2.4693319832e-02 2.5192792343e-02 5.1099893000e-04 0.0000e+00 1.0000e+00
<vert_displacement>
468.22768713060367
</vert_displacement>
</event>
<event>
 4   1200 +8.6263000e+09 3.78069100e-02 7.81665300e-03            nan
       50 -1    0    0    0    0 +6.6498574745e-03 +8.1063995496e-03 +7.3680934421e+00 7.3681025944e+00 4.9935713700e-03 0.0000e+00 0.0000e+00
       11 -1    0    0    0    0 -9.8321087188e-19 -1.1985670670e-18 -1.0894052399e-15 5.1100000000e-04 5.1099893000e-04 0.0000e+00 1.0000e+00
       50  1    1    2    0    0 +6.8078739674e-03 -3.1339531299e-02 +5.5375513044e+00 5.5376464222e+00 4.9935713700e-03 0.0000e+00 0.0000e+00
       11  1    1    2    0    0 -1.5801649284e-04 +3.9445930849e-02 +1.8305421377e+00 1.8309671722e+00 5.1099893000e-04 0.0000e+00 1.0000e+00
<vert_displacement>
45.405493455844336
</vert_displacement>
</event>
<event>
 4   1200 +8.6263000e+09 4.96939800e-02 7.81665300e-03            nan
       50 -1    0    0    0    0 +6.3749065926e-03 -9.2803391754e-03 +1.3997586760e+01 1.3997592179e+01 4.9935713700e-03 0.0000e+00 0.0000e+00
       11 -1    0    0    0    0 +4.7086567523e-19 -6.8546779608e-19 +1.0338948572e-15 5.1100000000e-04 5.1099893000e-04 0.0000e+00 -1.0000e+00
       50  1    1    2    0    0 +3.8365851291e-02 +2.9218894432e-02 +1.0933825684e+01 1.0933933176e+01 4.9935713700e-03 0.0000e+00 0.0000e+00
       11  1    1    2    0    0 -3.1990944698e-02 -3.8499233607e-02 +3.0637610761e+00 3.0641700024e+00 5.1099893000e-04 0.0000e+00 -1.0000e+00
<vert_displacement>
183.98754290021486
</vert_displacement>
</event>
<event>
 4   1200 +8.6263000e+09 1.10022800e-02 7.81665300e-03            nan
       50 -1    0    0    0    0 +1.5320908683e-02 -2.1999967655e-03 +6.5017731702e+00 6.5017935113e+00 4.9935713700e-03 0.0000e+00 0.0000e+00
       11 -1    0    0    0    0 -9.8105414483e-20 +1.4087388614e-20 -4.1633245451e-17 5.1100000000e-04 5.1099893000e-04 0.0000e+00 1.0000e+00
       50  1    1    2    0    0 +9.3366029528e-03 -1.0101418791e-02 +6.4063248234e+00 6.4063415371e+00 4.9935713700e-03 0.0000e+00 0.0000e+00
       11  1    1    2    0    0 +5.9843057302e-03 +7.9014220259e-03 +9.5448346797e-02 9.5962974169e-02 5.1099893000e-04 0.0000e+00 1.0000e+00
<vert_displacement>
478.98657744658436
</vert_displacement>
</event>
<event>
 4   1200 +8.6263000e+09 1.01014400e-02 7.81665300e-03            nan
       50 -1    0    0    0    0 +1.4840899175e-02 +2.0778225911e-02 +1.3792566770e+01 1.3792591310e+01 4.9935713700e-03 0.0000e+00 0.0000e+00
       11 -1    0    0    0    0 -2.3145486637e-19 -3.2405189503e-19 -2.1510534241e-16 5.1100000000e-04 5.1099893000e-04 0.0000e+00 1.0000e+00
       50  1    1    2    0    0 +1.9949398285e-02 +2.7746709937e-02 +1.3716686223e+01 1.3716729703e+01 4.9935713700e-03 0.0000e+00 0.0000e+00
       11  1    1    2    0    0 -5.1084991100e-03 -6.9684840256e-03 +7.5880547273e-02 7.6372607047e-02 5.1099893000e-04 0.0000e+00 1.0000e+00
<vert_displacement>
431.17436148244366
</vert_displacement>
</event>
<event>
 4   1200 +8.6263000e+09 2.09177600e-02 7.81665300e-03            nan
       50 -1    0    0    0    0 +4.5438178996e-02 -2.9967293577e-02 +2.2762002742e+01 2.2762068369e+01 4.9935713700e-03 0.0000e+00 0.0000e+00
       11 -1    0    0    0    0 -6.3717288179e-19 +4.2022693756e-19 -3.1918820698e-16 5.1100000000e-04 5.1099893000e-04 0.0000e+00 1.0000e+00
       50  1    1    2    0    0 +4.8516114546e-02 -4.9361243080e-02 +2.2350790498e+01 2.2350898218e+01 4.9935713700e-03 0.0000e+00 0.0000e+00
       11  1    1    2    0    0 -3.0779355500e-03 +1.9393949504e-02 +4.1121224394e-01 4.1168115047e-01 5.1099893000e-04 0.0000e+00 1.0000e+00
<vert_displacement>
393.78991062880920
</vert_displacement>
</event>
<event>
 4   1200 +8.6263000e+09 3.12495300e-02 7.81665300e-03            nan
       50 -1    0    0    0    0 -5.3472584999e-02 -1.9660317038e-02 +3.5724019924e+01 3.5724065702e+01 4.9935713700e-03 0.0000e+00 0.0000e+00
       11 -1    0    0    0    0 +5.8994141723e-18 +2.1690433139e-18 -3.9412867254e-15 5.1100000000e-04 5.1099893000e-04 0.0000e+00 1.0000e+00
       50  1    1    2    0    0 -5.2672852509e-02 -4.9975258749e-02 +3.4767235148e+01 3.4767311324e+01 4.9935713700e-03 0.0000e+00 0.0000e+00
       11  1    1    2    0    0 -7.9973248993e-04 +3.0314941711e-02 +9.5678477554e-01 9.5726537756e-01 5.1099893000e-04 0.0000e+00 1.0000e+00
<vert_displacement>
220.62225383609072
</vert_displacement>
</event>
<event>
 4   1200 +8.6263000e+09 2.89573400e-02 7.81665300e-03            nan
       50 -1    0    0    0    0 +1.4360455886e-02 -5.6789993612e-02 +2.5775456515e+01 2.5775523560e+01 4.9935713700e-03 0.0000e+00 0.0000e+00
       11 -1    0    0    0    0 +3.4019949069e-19 -1.3453560985e-18 +6.1062108669e-16 5.1100000000e-04 5.1099893000e-04 0.0000e+00 1.0000e+00
       50  1    1    2    0    0 +3.4383579254e-03 -8.1512929576e-02 +2.4953050576e+01 2.4953184450e+01 4.9935713700e-03 0.0000e+00 0.0000e+00
       11  1    1    2    0    0 +1.0922097961e-02 +2.4722935964e-02 +8.2240593850e-01 8.2285011065e-01 5.1099893000e-04 0.0000e+00 1.0000e+00
<vert_displacement>
435.15442925799414
</vert_displacement>
</event>
<event>
 4   1200 +8.6263000e+09 7.75727400e-03 7.81665300e-03            nan
       50 -1    0    0    0    0 +3.2662954074e-02 +1.6675533499e-02 +9.4795297394e+00 9.4796019937e+00 4.9935713700e-03 0.0000e+00 0.0000e+00
       11 -1    0    0    0    0 +9.8025602601e-19 +5.0045357691e-19 +2.8449252109e-16 5.1100000000e-04 5.1099893000e-04 0.0000e+00 1.0000e+00
       50  1    1    2    0    0 +3.4906231422e-02 +2.2060540128e-02 +9.4449027678e+00 9.4449943537e+00 4.9935713700e-03 0.0000e+00 0.0000e+00
       11  1    1    2    0    0 -2.2432773479e-03 -5.3850066292e-03 +3.4626971603e-02 3.5118639950e-02 5.1099893000e-04 0.0000e+00 1.0000e+00
<vert_displacement>
24.500925903261614
</vert_displacement>
</event>
<event>
 4   1200 +8.6263000e+09 1.06699600e-02 7.81665300e-03            nan
       50 -1    0    0    0    0 +2.2355895525e-02 +1.0591057775e-02 +1.4201429322e+01 1.4201451745e+01 4.9935713700e-03 0.0000e+00 0.0000e+00
       11 -1    0    0    0    0 +1.7149412841e-18 +8.1244977196e-19 +1.0894046901e-15 5.1100000000e-04 5.1099893000e-04 0.0000e+00 1.0000e+00
       50  1    1    2    0    0 +2.8379205106e-02 +3.3876451796e-03 +1.4113883116e+01 1.4113912937e+01 4.9935713700e-03 0.0000e+00 0.0000e+00
       11  1    1    2    0    0 -6.0233095813e-03 +7.2034125959e-03 +8.7546206193e-02 8.8049808347e-02 5.1099893000e-04 0.0000e+00 1.0000e+00
<vert_displacement>
165.72364975371576
</vert_displacement>
</event>
<event>
 4   1200 +8.6263000e+09 3.04720800e-02 7.81665300e-03            nan
       50 -1    0    0    0    0 +2.1243554742e-02 -2.5591404579e-02 +1.4495612967e+01 1.4495651983e+01 4.9935713700e-03 0.0000e+00 0.0000e+00
       11 -1    0    0    0    0 +5.6946591704e-19 -6.8601666971e-19 +3.8857703577e-16 5.1100000000e-04 5.1099893000e-04 0.0000e+00 1.0000e+00
       50  1    1    2    0    0 -9.0583046394e-03 -3.2137600866e-02 +1.3549607374e+01 1.3549649435e+01 4.9935713700e-03 0.0000e+00 0.0000e+00
       11  1    1    2    0    0 +3.0301859382e-02 +6.5461962865e-03 +9.4600559245e-01 9.4651354847e-01 5.1099893000e-04 0.0000e+00 1.0000e+00
<vert_displacement>
457.32544044019482
</vert_displacement>
</event>
<event>
 4   1200 +8.6263000e+09 3.09203500e-02 7.81665300e-03            nan
       50 -1    0    0    0    0 -1.6457083209e-01 +2.6968586904e-02 +5.4097182811e+01 5.4097440087e+01 4.9935713700e-03 0.0000e+00 0.0000e+00
       11 -1    0    0    0    0 +1.1821005691e-18 -1.9371343951e-19 -3.8857621228e-16 5.1100000000e-04 5.1099893000e-04 0.0000e+00 1.0000e+00
       50  1    1    2    0    0 -1.6726301712e-01 +5.6518909590e-02 +5.3170167234e+01 5.3170460595e+01 4.9935713700e-03 0.0000e+00 0.0000e+00
       11  1    1    2    0    0 +2.6921850277e-03 -2.9550322686e-02 +9.2701557759e-01 9.2749049140e-01 5.1099893000e-04 0.0000e+00 1.0000e+00
<vert_displacement>
316.04866352744278
</vert_displacement>
</event>
<event>
 4   1200 +8.6263000e+09 2.52775800e-02 7.81665300e-03            nan
       50 -1    0    0    0    0 +2.2806643282e-03 -7.3912189079e-03 +3.7706386533e+00 3.7706498937e+00 4.9935713700e-03 0.0000e+00 0.0000e+00
       11 -1    0    0    0    0 +1.2171210844e-19 -3.9444683995e-19 +2.0122749981e-16 5.1100000000e-04 5.1099893000e-04 0.0000e+00 1.0000e+00
       50  1    1    2    0    0 -2.0606380066e-02 +4.6087697739e-03 +3.0189750123e+00 3.0190529847e+00 4.9935713700e-03 0.0000e+00 0.0000e+00
       11  1    1    2    0    0 +2.2887044394e-02 -1.1999988682e-02 +7.5166364098e-01 7.5210790902e-01 5.1099893000e-04 0.0000e+00 1.0000e+00
<vert_displacement>
422.31279063998250
</vert_displacement>
</event>
<event>
 4   1200 +8.6263000e+09 5.79245400e-03 7.81665300e-03            nan
       50 -1    0    0    0    0 +1.5492093966e-02 -3.0253722609e-03 +4.4744966578e+01 4.4744969641e+01 4.9935713700e-03 0.0000e+00 0.0000e+00
       11 -1    0    0    0    0 -1.9844319099e-18 +3.8752961782e-19 -5.7315260080e-15 5.1100000000e-04 5.1099893000e-04 0.0000e+00 1.0000e+00
       50  1    1    2    0    0 +1.4147964111e-02 -4.1368725163e-04 +4.4736534256e+01 4.4736536774e+01 4.9935713700e-03 0.0000e+00 0.0000e+00
       11  1    1    2    0    0 +1.3441298556e-03 -2.6116850093e-03 +8.4323215033e-03 8.9438665855e-03 5.1099893000e-04 0.0000e+00 1.0000e+00
<vert_displacement>
216.06628451111970
</vert_displacement>
</event>
<event>
 4   1200 +8.6263000e+09 1.99199700e-02 7.81665300e-03            nan
       50 -1    0    0    0    0 +1.0825034475e-02 +3.1027158264e-03 +8.9963546383e+00 8.9963630720e+00 4.9935713700e-03 0.0000e+00 0.0000e+00
       11 -1    0    0    0    0 -4.9261160597e-19 -1.4119436105e-19 -4.0939441961e-16 5.1100000000e-04 5.1099893000e-04 0.0000e+00 1.0000e+00
       50  1    1    2    0    0 +2.2275197333e-02 +1.8140163364e-02 +8.6163583166e+00 8.6164076520e+00 4.9935713700e-03 0.0000e+00 0.0000e+00
       11  1    1    2    0    0 -1.1450162858e-02 -1.5037447538e-02 +3.7999632174e-01 3.8046641996e-01 5.1099893000e-04 0.0000e+00 1.0000e+00
<vert_displacement>
490.41801367400052
</vert_displacement>
</event>
<event>
 4   1200 +8.6263000e+09 9.84441400e-03 7.81665300e-03            nan
       50 -1    0    0    0    0 -7.0006985128e-03 -3.0710275136e-03 +3.8441609281e+00 3.8441717727e+00 4.9935713700e-03 0.0000e+00 0.0000e+00
       11 -1    0    0    0    0 +6.3182849377e-19 +2.7716701193e-19 -3.4694400916e-16 5.1100000000e-04 5.1099893000e-04 0.0000e+00 1.0000e+00
       50  1    1    2    0    0 -1.0189566839e-02 +4.7938168473e-03 +3.7723755710e+00 3.7723956834e+00 4.9935713700e-03 0.0000e+00 0.0000e+00
       11  1    1    2    0    0 +3.1888683261e-03 -7.8648443609e-03 +7.1785357113e-02 7.2287089261e-02 5.1099893000e-04 0.0000e+00 1.0000e+00
<vert_displacement>
62.913266546115707
</vert_displacement>
</event>
<event>
 4   1200 +8.6263000e+09 6.79069200e-03 7.81665300e-03            nan
       50 -1    0    0    0    0 +5.6334556274e-05 +7.2856588219e-03 +5.2829042885e+00 5.2829116726e+00 4.9935713700e-03 0.0000e+00 0.0000e+00
       11 -1    0    0    0    0 +6.4374107675e-21 +8.3254012546e-19 +6.0368319553e-16 5.1100000000e-04 5.1099893000e-04 0.0000e+00 1.0000e+00
       50  1    1    2    0    0 -2.4180120858e-03 +3.3767038632e-03 +5.2621034881e+00 5.2621074964e+00 4.9935713700e-03 0.0000e+00 0.0000e+00
       11  1    1    2    0    0 +2.4743466420e-03 +3.9089549587e-03 +2.0800800365e-02 2.1315176187e-02 5.1099893000e-04 0.0000e+00 1.0000e+00
<vert_displacement>
152.80888605864942
</vert_displacement>
</event>
<event>
 4   1200 +8.6263000e+09 7.98580900e-03 7.81665300e-03            nan
       50 -1    0    0    0    0 +4.4303575198e-02 -3.5111001264e-03 +1.4806123800e+01 1.4806191342e+01 4.9935713700e-03 0.0000e+00 0.0000e+00
       11 -1    0    0    0    0 +7.6822318955e-19 -6.0882412444e-20 +2.5673791787e-16 5.1100000000e-04 5.1099893000e-04 0.0000e+00 1.0000e+00
       50  1    1    2    0    0 +3.9632962213e-02 +7.4934852929e-04 +1.4768037735e+01 1.4768091779e+01 4.9935713700e-03 0.0000e+00 0.0000e+00
       11  1    1    2    0    0 +4.6706129845e-03 -4.2604486557e-03 +3.8086065453e-02 3.8610562674e-02 5.1099893000e-04 0.0000e+00 1.0000e+00
<vert_displacement>
77.594607443792043
</vert_displacement>
</event>
<event>
 4   1200 +8.6263000e+09 2.49462700e-02 7.81665300e-03            nan
       50 -1    0    0    0    0 +1.4645855912e-02 -1.1552640888e-02 +1.2706053755e+01 1.2706068429e+01 4.9935713700e-03 0.0000e+00 0.0000e+00
       11 -1    0    0    0    0 +1.1197520949e-19 -8.8325966843e-20 +9.7144409966e-17 5.1100000000e-04 5.1099893000e-04 0.0000e+00 1.0000e+00
       50  1    1    2    0    0 +3.6182680500e-02 -8.6767963903e-04 +1.2091737123e+01 1.2091792321e+01 4.9935713700e-03 0.0000e+00 0.0000e+00
       11  1    1    2    0    0 -2.1536824588e-02 -1.0684961249e-02 +6.1431663191e-01 6.1478710833e-01 5.1099893000e-04 0.0000e+00 1.0000e+00
<vert_displacement>
194.36331177501830
</vert_displacement>
</event>
<event>
 4   1200 +8.6263000e+09 1.16438200e-02 7.81665300e-03            nan
       50 -1    0    0    0    0 -6.8367696907e-03 -1.5658057636e-05 +2.3269415122e+00 2.3269569138e+00 4.9935713700e-03 0.0000e+00 0.0000e+00
       11 -1    0    0    0    0 +1.8348322496e-19 +4.2022637029e-22 -6.2449775589e-17 5.1100000000e-04 5.1099893000e-04 0.0000e+00 -1.0000e+00
       50  1    1    2    0    0 +3.6933585788e-03 +2.5726116644e-03 +2.2130519836e+00 2.2130621946e+00 4.9935713700e-03 0.0000e+00 0.0000e+00
       11  1    1    2    0    0 -1.0530128270e-02 -2.5882697220e-03 +1.1388952860e-01 1.1440571920e-01 5.1099893000e-04 0.0000e+00 -1.0000e+00
<vert_displacement>
255.43537718078258
</vert_displacement>
</event>
<event>
 4   1200 +8.6263000e+09 7.45254400e-03 7.81665300e-03            nan
       50 -1    0    0    0    0 -1.7929234652e-02 -3.8771202446e-03 +6.1033618493e+00 6.1033914580e+00 4.9935713700e-03 0.0000e+00 0.0000e+00
       11 -1    0    0    0    0 +4.3417070983e-18 +9.3887557464e-19 -1.4779777262e-15 5.1100000000e-04 5.1099893000e-04 0.0000e+00 1.0000e+00
       50  1    1    2    0    0 -1.5652953749e-02 -8.9391319344e-03 +6.0732678091e+00 6.0732966123e+00 4.9935713700e-03 0.0000e+00 0.0000e+00
       11  1    1    2    0    0 -2.2762809032e-03 +5.0620116898e-03 +3.0094040201e-02 3.0605845727e-02 5.1099893000e-04 0.0000e+00 1.0000e+00
<vert_displacement>
324.34815628288726
</vert_displacement>
</event>
<event>
 4   1200 +8.6263000e+09 2.13110200e-02 7.81665300e-03            nan
       50 -1    0    0    0    0 +2.8274211518e-02 +1.3305358026e-02 +1.1077586882e+01 1.1077632082e+01 4.9935713700e-03 0.0000e+00 0.0000e+00
       11 -1    0    0    0    0 -1.2397436627e-18 -5.8340206171e-19 -4.8572064076e-16 5.1100000000e-04 5.1099893000e-04 0.0000e+00 1.0000e+00
       50  1    1    2    0    0 +4.7111702862e-02 +7.2057343870e-03 +1.0640239867e+01 1.0640347776e+01 4.9935713700e-03 0.0000e+00 0.0000e+00
       11  1    1    2    0    0 -1.8837491344e-02 +6.0996236390e-03 +4.3734701524e-01 4.3779530530e-01 5.1099893000e-04 0.0000e+00 1.0000e+00
<vert_displacement>
199.22641208272989
</vert_displacement>
</event>
<event>
 4   1200 +8.6263000e+09 2.42107800e-02 7.81665300e-03            nan
       50 -1    0    0    0    0 +3.2725965708e-02 +2.1456425689e-02 +1.5854315484e+01 1.5854364565e+01 4.9935713700e-03 0.0000e+00 0.0000e+00
       11 -1    0    0    0    0 -2.0052195721e-19 -1.3147005385e-19 -9.7144218737e-17 5.1100000000e-04 5.1099893000e-04 0.0000e+00 1.0000e+00
       50  1    1    2    0    0 +5.0051976782e-02 +5.8900092373e-03 +1.5284636899e+01 1.5284720801e+01 4.9935713700e-03 0.0000e+00 0.0000e+00
       11  1    1    2    0    0 -1.7326011074e-02 +1.5566416451e-02 +5.6967858439e-01 5.7015476374e-01 5.1099893000e-04 0.0000e+00 1.0000e+00
<vert_displacement>
478.43238418006030
</vert_displacement>
</event>
<event>
 4   1200 +8.6263000e+09 1.02714900e-02 7.81665300e-03            nan
       50 -1    0    0    0    0 +6.0563954721e-03 +6.0119626527e-03 +4.2342231707e+00 4.2342347146e+00 4.9935713700e-03 0.0000e+00 0.0000e+00
       11 -1    0    0    0    0 +1.2604730595e-18 +1.2512255835e-18 +8.8123773607e-16 5.1100000000e-04 5.1099893000e-04 0.0000e+00 1.0000e+00
       50  1    1    2    0    0 -2.2444611002e-03 +9.5800878907e-03 +4.1538523109e+00 4.1538669661e+00 4.9935713700e-03 0.0000e+00 0.0000e+00
       11  1    1    2    0    0 +8.3008565723e-03 -3.5681252379e-03 +8.0370859786e-02 8.0878748508e-02 5.1099893000e-04 0.0000e+00 1.0000e+00
<vert_displacement>
152.55358505213442
</vert_displacement>
</event>
<event>
 4   1200 +8.6263000e+09 7.04398400e-03 7.81665300e-03            nan
       50 -1    0    0    0    0 -4.0556788979e-02 +4.3938450821e-02 +2.4157820498e+01 2.4157895016e+01 4.9935713700e-03 0.0000e+00 0.0000e+00
       11 -1    0    0    0    0 -3.4248539834e-18 +3.7104214142e-18 +2.0400285586e-15 5.1100000000e-04 5.1099893000e-04 0.0000e+00 1.0000e+00
       50  1    1    2    0    0 -3.7745502015e-02 +3.9770765602e-02 +2.4133657355e+01 2.4133720159e+01 4.9935713700e-03 0.0000e+00 0.0000e+00
       11  1    1    2    0    0 -2.8112869645e-03 +4.1676852196e-03 +2.4163143460e-02 2.4685857414e-02 5.1099893000e-04 0.0000e+00 1.0000e+00
<vert_displacement>
9.9253921266394993
</vert_displacement>
</event>
<event>
 4   1200 +8.6263000e+09 9.97216500e-03 7.81665300e-03            nan
       50 -1    0    0    0    0 -3.0180667871e-02 +2.4880444096e-02 +1.3047604362e+01 1.3047663946e+01 4.9935713700e-03 0.0000e+00 0.0000e+00
       11 -1    0    0    0    0 -1.6692435309e-18 +1.3760967959e-18 +7.2164172340e-16 5.1100000000e-04 5.1099893000e-04 0.0000e+00 1.0000e+00
       50  1    1    2    0    0 -2.3386829424e-02 +1.9206456367e-02 +1.2974310500e+01 1.2974346755e+01 4.9935713700e-03 0.0000e+00 0.0000e+00
       11  1    1    2    0    0 -6.7938384468e-03 +5.6739877290e-03 +7.3293861747e-02 7.3828190194e-02 5.1099893000e-04 0.0000e+00 1.0000e+00
<vert_displacement>
166.22165029025780
</vert_displacement>
</event>
<event>
 4   1200 +8.6263000e+09 3.98821200e-02 7.81665300e-03            nan
       50 -1    0    0    0    0 +1.6541152055e-02 -1.1256169830e-02 +6.9101274917e+00 6.9101582615e+00 4.9935713700e-03 0.0000e+00 0.0000e+00
       11 -1    0    0    0    0 -9.1354681947e-19 +6.2166396351e-19 -3.8163756499e-16 5.1100000000e-04 5.1099893000e-04 0.0000e+00 1.0000e+00
       50  1    1    2    0    0 -1.8842221447e-02 -3.3452153198e-02 +4.6093434117e+00 4.6095060146e+00 4.9935713700e-03 0.0000e+00 0.0000e+00
       11  1    1    2    0    0 +3.5383373502e-02 +2.2195983368e-02 +2.3007840800e+00 2.3011632469e+00 5.1099893000e-04 0.0000e+00 1.0000e+00
<vert_displacement>
325.94114076878202
</vert_displacement>
</event>
<event>
 4   1200 +8.6263000e+09 1.43227800e-02 7.81665300e-03            nan
       50 -1    0    0    0    0 +1.6265524115e-02 +1.4472273501e-02 +6.0333664784e+00 6.0334078275e+00 4.9935713700e-03 0.0000e+00 0.0000e+00
       11 -1    0    0    0    0 +1.8706639434e-20 +1.6644259370e-20 +6.9388487258e-18 5.1100000000e-04 5.1099893000e-04 0.0000e+00 1.0000e+00
       50  1    1    2    0    0 +2.8088438715e-02 +8.6889303628e-03 +5.8515026604e+00 5.8515786569e+00 4.9935713700e-03 0.0000e+00 0.0000e+00
       11  1    1    2    0    0 -1.1822914600e-02 +5.7833431378e-03 +1.8186381801e-01 1.8234017053e-01 5.1099893000e-04 0.0000e+00 1.0000e+00
<vert_displacement>
278.37418960899720
</vert_displacement>
</event>
<event>
 4   1200 +8.6263000e+09 2.58144100e-02 7.81665300e-03            nan
       50 -1    0    0    0    0 -1.1758001764e-01 +6.8903586241e-02 +3.6437375906e+01 3.6437631106e+01 4.9935713700e-03 0.0000e+00 0.0000e+00
       11 -1    0    0    0    0 +2.1764059394e-17 -1.2754052717e-17 -6.7445577004e-15 5.1100000000e-04 5.1099893000e-04 0.0000e+00 1.0000e+00
       50  1    1    2    0    0 -9.9378657883e-02 +8.7213526331e-02 +3.5798538577e+01 3.5798783101e+01 4.9935713700e-03 0.0000e+00 0.0000e+00
       11  1    1    2    0    0 -1.8201359757e-02 -1.8309940090e-02 +6.3883732899e-01 6.3935900512e-01 5.1099893000e-04 0.0000e+00 1.0000e+00
<vert_displacement>
104.29363628773959
</vert_displacement>
</event>
<event>
 4   1200 +8.6263000e+09 1.51961200e-02 7.81665300e-03            nan
       50 -1    0    0    0    0 +7.7467056839e-03 -1.2689498686e-02 +5.7449989644e+00 5.7450203718e+00 4.9935713700e-03 0.0000e+00 0.0000e+00
       11 -1    0    0    0    0 -8.6080290092e-19 +1.4100390187e-18 -6.3837610156e-16 5.1100000000e-04 5.1099893000e-04 0.0000e+00 1.0000e+00
       50  1    1    2    0    0 +2.0350756251e-02 -1.8546543746e-02 +5.5357467940e+00 5.5358175214e+00 4.9935713700e-03 0.0000e+00 0.0000e+00
       11  1    1    2    0    0 -1.2604050568e-02 +5.8570450601e-03 +2.0925217044e-01 2.0971385034e-01 5.1099893000e-04 0.0000e+00 1.0000e+00
<vert_displacement>
131.43680297701516
</vert_displacement>
</event>
<event>
 4   1200 +8.6263000e+09 3.18069800e-02 7.81665300e-03            nan
       50 -1    0    0    0    0 +1.4155901647e-02 -5.9238193937e-03 +3.8025771482e+01 3.8025774907e+01 4.9935713700e-03 0.0000e+00 0.0000e+00
       11 -1    0    0    0    0 -1.6997130468e-18 +7.1127882641e-19 -4.5657918170e-15 5.1100000000e-04 5.1099893000e-04 0.0000e+00 1.0000e+00
       50  1    1    2    0    0 +4.4941503513e-02 -9.7861755911e-03 +3.7034376437e+01 3.7034405335e+01 4.9935713700e-03 0.0000e+00 0.0000e+00
       11  1    1    2    0    0 -3.0785601866e-02 +3.8623561974e-03 +9.9139504580e-01 9.9188057196e-01 5.1099893000e-04 0.0000e+00 1.0000e+00
<vert_displacement>
312.62009901271449
</vert_displacement>
</event>
<event>
 4   1200 +8.6263000e+09 8.52188000e-03 7.81665300e-03            nan
       50 -1    0    0    0    0 -1.8372600218e-03 +4.7227723923e-03 +1.5175895309e+01 1.5175896977e+01 4.9935713700e-03 0.0000e+00 0.0000e+00
       11 -1    0    0    0    0 -1.6801053769e-21 +4.3187982083e-21 +1.3877787034e-17 5.1100000000e-04 5.1099893000e-04 0.0000e+00 1.0000e+00
       50  1    1    2    0    0 -4.6789826538e-03 +1.0999394932e-02 +1.5129086681e+01 1.5129092227e+01 4.9935713700e-03 0.0000e+00 0.0000e+00
       11  1    1    2    0    0 +2.8417226319e-03 -6.2766225400e-03 +4.6808628022e-02 4.7315749547e-02 5.1099893000e-04 0.0000e+00 1.0000e+00
<vert_displacement>
207.34432005531929
</vert_displacement>
</event>
<event>
 4   1200 +8.6263000e+09 8.67467100e-03 7.81665300e-03            nan
       50 -1    0    0    0    0 -9.5092440826e-03 +4.6846321135e-02 +2.0034657124e+01 2.0034714773e+01 4.9935713700e-03 0.0000e+00 0.0000e+00
       11 -1    0    0    0    0 -1.1922344376e-18 +5.8734213621e-18 +2.5118724435e-15 5.1100000000e-04 5.1099893000e-04 0.0000e+00 1.0000e+00
       50  1    1    2    0    0 -7.2139897035e-03 +5.3450497700e-02 +1.9985288568e+01 1.9985361970e+01 4.9935713700e-03 0.0000e+00 0.0000e+00
       11  1    1    2    0    0 -2.2952543791e-03 -6.6041765654e-03 +4.9368556715e-02 4.9863803032e-02 5.1099893000e-04 0.0000e+00 1.0000e+00
<vert_displacement>
139.08203791046665
</vert_displacement>
</event>
<event>
 4   1200 +8.6263000e+09 9.47345300e-03 7.81665300e-03            nan
       50 -1    0    0    0    0 -1.0838184843e-02 -2.3031304708e-03 +6.6538565069e+00 6.6538676062e+00 4.9935713700e-03 0.0000e+00 0.0000e+00
       11 -1    0    0    0    0 +7.7986936097e-19 +1.6572340429e-19 -4.7878301554e-16 5.1100000000e-04 5.1099893000e-04 0.0000e+00 1.0000e+00
       50  1    1    2    0    0 -1.8752187586e-02 -1.5619065611e-03 +6.5898049216e+00 6.5898336796e+00 4.9935713700e-03 0.0000e+00 0.0000e+00
       11  1    1    2    0    0 +7.9140027431e-03 -7.4122390969e-04 +6.4051585252e-02 6.4544926567e-02 5.1099893000e-04 0.0000e+00 1.0000e+00
<vert_displacement>
108.03068506420028
</vert_displacement>
</event>
<event>
 4   1200 +8.6263000e+09 1.42620700e-02 7.81665300e-03            nan
       50 -1    0    0    0    0 +6.1083241761e-03 +1.0734488541e-02 +1.2749345884e+01 1.2749352844e+01 4.9935713700e-03 0.0000e+00 0.0000e+00
       11 -1    0    0    0    0 +4.1556047155e-19 +7.3028689888e-19 +8.6736133100e-16 5.1100000000e-04 5.1099893000e-04 0.0000e+00 1.0000e+00
       50  1    1    2    0    0 -7.3315686537e-03 +1.0922636313e-02 +1.2572251213e+01 1.2572259087e+01 4.9935713700e-03 0.0000e+00 0.0000e+00
       11  1    1    2    0    0 +1.3439892830e-02 -1.8814777194e-04 +1.7709467137e-01 1.7760475744e-01 5.1099893000e-04 0.0000e+00 1.0000e+00
<vert_displacement>
62.630101623600382
</vert_displacement>
</event>
<event>
 4   1200 +8.6263000e+09 1.18313500e-02 7.81665300e-03            nan
       50 -1    0    0    0    0 -6.2582497427e-04 +2.1017440803e-02 +3.3553356263e+01 3.3553363223e+01 4.9935713700e-03 0.0000e+00 0.0000e+00
       11 -1    0    0    0    0 -4.3226846187e-20 +1.4517120892e-18 +2.3175901088e-15 5.1100000000e-04 5.1099893000e-04 0.0000e+00 1.0000e+00
       50  1    1    2    0    0 +9.5932645527e-03 +2.4211388913e-02 +3.3440403722e+01 3.3440414235e+01 4.9935713700e-03 0.0000e+00 0.0000e+00
       11  1    1    2    0    0 -1.0219089527e-02 -3.1939481096e-03 +1.1295254119e-01 1.1345998755e-01 5.1099893000e-04 0.0000e+00 1.0000e+00
<vert_displacement>
239.94449022100943
</vert_displacement>
</event>
<event>
 4   1200 +8.6263000e+09 1.50644400e-02 7.81665300e-03            nan
       50 -1    0    0    0    0 -2.6493280934e-02 -1.0429641187e-01 +4.2679914636e+01 4.2680050585e+01 4.9935713700e-03 0.0000e+00 0.0000e+00
       11 -1    0    0    0    0 -1.2060327484e-19 -4.7478033608e-19 +1.9428841177e-16 5.1100000000e-04 5.1099893000e-04 0.0000e+00 1.0000e+00
       50  1    1    2    0    0 -1.3542447074e-02 -9.7691123358e-02 +4.2481358054e+01 4.2481472832e+01 4.9935713700e-03 0.0000e+00 0.0000e+00
       11  1    1    2    0    0 -1.2950833860e-02 -6.6052885088e-03 +1.9855658251e-01 1.9908875285e-01 5.1099893000e-04 0.0000e+00 1.0000e+00
<vert_displacement>
397.08838909690786
</vert_displacement>
</event>
<event>
 4   1200 +8.6263000e+09 1.90511800e-02 7.81665300e-03            nan
       50 -1    0    0    0    0 -2.7697771958e-02 -4.1060994350e-02 +1.6115732194e+01 1.6115809079e+01 4.9935713700e-03 0.0000e+00 0.0000e+00
       11 -1    0    0    0    0 -3.3391891526e-19 -4.9502330779e-19 +1.9428811173e-16 5.1100000000e-04 5.1099893000e-04 0.0000e+00 1.0000e+00
       50  1    1    2    0    0 -1.6115487365e-02 -2.5470251141e-02 +1.5777951482e+01 1.5777981061e+01 4.9935713700e-03 0.0000e+00 0.0000e+00
       11  1    1    2    0    0 -1.1582284593e-02 -1.5590743210e-02 +3.3778071193e-01 3.3833901795e-01 5.1099893000e-04 0.0000e+00 1.0000e+00
<vert_displacement>
494.73811390173574
</vert_displacement>
</event>
<event>
 4   1200 +8.6263000e+09 6.52641500e-03 7.81665300e-03            nan
       50 -1    0    0    0    0 -7.6040935308e-02 +5.5427181414e-02 +2.4849129057e+01 2.4849307721e+01 4.9935713700e-03 0.0000e+00 0.0000e+00
       11 -1    0    0    0    0 -2.8028337800e-18 +2.0430203254e-18 +9.1592742833e-16 5.1100000000e-04 5.1099893000e-04 0.0000e+00 1.0000e+00
       50  1    1    2    0    0 -7.2002056792e-02 +5.6719143130e-02 +2.4831847802e+01 2.4832017468e+01 4.9935713700e-03 0.0000e+00 0.0000e+00
       11  1    1    2    0    0 -4.0388785160e-03 -1.2919617155e-03 +1.7281255144e-02 1.7801252877e-02 5.1099893000e-04 0.0000e+00 1.0000e+00
<vert_displacement>
155.56499138961735
</vert_displacement>
</event>
<event>
 4   1200 +8.6263000e+09 1.07806100e-02 7.81665300e-03            nan
       50 -1    0    0    0    0 -1.8441357329e-02 -1.6382099193e-02 +4.9262303790e+01 4.9262310219e+01 4.9935713700e-03 0.0000e+00 0.0000e+00
       11 -1    0    0    0    0 +1.9741581901e-19 +1.7537133908e-19 -5.2735587059e-16 5.1100000000e-04 5.1099893000e-04 0.0000e+00 1.0000e+00
       50  1    1    2    0    0 -2.2822590061e-02 -7.8790929211e-03 +4.9172820679e+01 4.9172826860e+01 4.9935713700e-03 0.0000e+00 0.0000e+00
       11  1    1    2    0    0 +4.3812327323e-03 -8.5030062717e-03 +8.9483111708e-02 8.9994359360e-02 5.1099893000e-04 0.0000e+00 1.0000e+00
<vert_displacement>
219.30213041582215
</vert_displacement>
</event>
<event>
 4   1200 +8.6263000e+09 8.14770500e-03 7.81665300e-03            nan
       50 -1    0    0    0    0 +1.2422011333e-02 -6.9324832251e-03 +8.7683916806e+00 8.7684046420e+00 4.9935713700e-03 0.0000e+00 0.0000e+00
       11 -1    0    0    0    0 -1.4941879970e-18 +8.3387729625e-19 -1.0547104854e-15 5.1100000000e-04 5.1099893000e-04 0.0000e+00 1.0000e+00
       50  1    1    2    0    0 +1.8693575832e-02 -8.0789470922e-03 +8.7276324868e+00 8.7276576742e+00 4.9935713700e-03 0.0000e+00 0.0000e+00
       11  1    1    2    0    0 -6.2715644993e-03 +1.1464638672e-03 +4.0759193851e-02 4.1257967763e-02 5.1099893000e-04 0.0000e+00 1.0000e+00
<vert_displacement>
277.53783034392967
</vert_displacement>
</event>
<event>
 4   1200 +8.6263000e+09 1.32351700e-02 7.81665300e-03            nan
       50 -1    0    0    0    0 -1.5009857582e-02 -3.8154573945e-03 +1.2644109820e+01 1.2644120291e+01 4.9935713700e-03 0.0000e+00 0.0000e+00
       11 -1    0    0    0    0 -2.4382034686e-18 -6.1978345913e-19 +2.0539110548e-15 5.1100000000e-04 5.1099893000e-04 0.0000e+00 1.0000e+00
       50  1    1    2    0    0 -2.6182249011e-02 -8.4002933704e-03 +1.2495335581e+01 1.2495366833e+01 4.9935713700e-03 0.0000e+00 0.0000e+00
       11  1    1    2    0    0 +1.1172391429e-02 +4.5848359759e-03 +1.4877423940e-01 1.4926445819e-01 5.1099893000e-04 0.0000e+00 1.0000e+00
<vert_displacement>
138.18807835103354
</vert_displacement>
</event>
<event>
 4   1200 +8.6263000e+09 1.52171200e-02 7.81665300e-03            nan
       50 -1    0    0    0    0 -6.7865716339e-03 +1.2679747807e-02 +8.2041902619e+00 8.2042043869e+00 4.9935713700e-03 0.0000e+00 0.0000e+00
       11 -1    0    0    0    0 +1.0905809190e-19 -2.0375959706e-19 -1.3183878161e-16 5.1100000000e-04 5.1099893000e-04 0.0000e+00 1.0000e+00
       50  1    1    2    0    0 -1.2394709800e-02 +2.5520390921e-02 +7.9967148411e+00 7.9967667281e+00 4.9935713700e-03 0.0000e+00 0.0000e+00
       11  1    1    2    0    0 +5.6081381665e-03 -1.2840643114e-02 +2.0747542085e-01 2.0794865882e-01 5.1099893000e-04 0.0000e+00 1.0000e+00
<vert_displacement>
465.58329471998013
</vert_displacement>
</event>
<event>
 4   1200 +8.6263000e+09 4.08802100e-02 7.81665300e-03            nan
       50 -1    0    0    0    0 -4.5244679049e-02 +2.3738787531e-04 +1.9481632666e+01 1.9481685846e+01 4.9935713700e-03 0.0000e+00 0.0000e+00
       11 -1    0    0    0    0 -4.0287586047e-18 +2.1137920865e-20 +1.7347187976e-15 5.1100000000e-04 5.1099893000e-04 0.0000e+00 1.0000e+00
       50  1    1    2    0    0 -3.4931738248e-02 -3.9882260658e-02 +1.7709363317e+01 1.7709443381e+01 4.9935713700e-03 0.0000e+00 0.0000e+00
       11  1    1    2    0    0 -1.0312940801e-02 +4.0119648533e-02 +1.7722693491e+00 1.7727534656e+00 5.1099893000e-04 0.0000e+00 1.0000e+00
<vert_displacement>
476.24716451699214
</vert_displacement>
</event>
<event>
 4   1200 +8.6263000e+09 8.16185700e-03 7.81665300e-03            nan
       50 -1    0    0    0    0 -2.4769037640e-03 -4.3911580778e-02 +2.3668664178e+01 2.3668705568e+01 4.9935713700e-03 0.0000e+00 0.0000e+00
       11 -1    0    0    0    0 -1.0601754385e-19 -1.8795231402e-18 +1.0130767609e-15 5.1100000000e-04 5.1099893000e-04 0.0000e+00 1.0000e+00
       50  1    1    2    0    0 +3.7963107585e-03 -4.5378689463e-02 +2.3627807639e+01 2.3627852048e+01 4.9935713700e-03 0.0000e+00 0.0000e+00
       11  1    1    2    0    0 -6.2732145225e-03 +1.4671086858e-03 +4.0856538534e-02 4.1364519691e-02 5.1099893000e-04 0.0000e+00 1.0000e+00
<vert_displacement>
203.00901712361423
</vert_displacement>
</event>
<event>
 4   1200 +8.6263000e+09 9.41660000e-03 7.81665300e-03            nan
       50 -1    0    0    0    0 +2.1621487254e-02 -7.5597860139e-03 +1.1286798731e+01 1.1286823077e+01 4.9935713700e-03 0.0000e+00 0.0000e+00
       11 -1    0    0    0    0 -1.1564407556e-18 +4.0434057785e-19 -6.0368252657e-16 5.1100000000e-04 5.1099893000e-04 0.0000e+00 1.0000e+00
       50  1    1    2    0    0 +2.1677640893e-02 -1.5499350862e-02 +1.1224076530e+01 1.1224109276e+01 4.9935713700e-03 0.0000e+00 0.0000e+00
       11  1    1    2    0    0 -5.6153638763e-05 +7.9395648477e-03 +6.2722200937e-02 6.3224800937e-02 5.1099893000e-04 0.0000e+00 1.0000e+00
<vert_displacement>
462.68975641985730
</vert_displacement>
</event>
<event>
 4   1200 +8.6263000e+09 6.56717100e-03 7.81665300e-03            nan
       50 -1    0    0    0    0 +1.2087173357e-02 -2.5474460490e-02 +1.0900255321e+01 1.0900292934e+01 4.9935713700e-03 0.0000e+00 0.0000e+00
       11 -1    0    0    0    0 -1.3849987436e-18 +2.9189699469e-18 -1.2489967239e-15 5.1100000000e-04 5.1099893000e-04 0.0000e+00 1.0000e+00
       50  1    1    2    0    0 +1.5600684709e-02 -2.7821891258e-02 +1.0882415435e+01 1.0882463327e+01 4.9935713700e-03 0.0000e+00 0.0000e+00
       11  1    1    2    0    0 -3.5135113526e-03 +2.3474307684e-03 +1.7839885968e-02 1.8340606438e-02 5.1099893000e-04 0.0000e+00 1.0000e+00
<vert_displacement>
160.87441326042588
</vert_displacement>
</event>
<event>
 4   1200 +8.6263000e+09 7.99940000e-03 7.81665300e-03            nan
       50 -1    0    0    0    0 +5.9190232440e-03 +7.9673988072e-03 +5.9913767270e+00 5.9913870293e+00 4.9935713700e-03 0.0000e+00 0.0000e+00
       11 -1    0    0    0    0 +6.1695796871e-20 +8.3046644376e-20 +6.2449959442e-17 5.1100000000e-04 5.1099893000e-04 0.0000e+00 1.0000e+00
       50  1    1    2    0    0 +2.4874070119e-03 +2.6685903848e-03 +5.9529219625e+00 5.9529251747e+00 4.9935713700e-03 0.0000e+00 0.0000e+00
       11  1    1    2    0    0 +3.4316162322e-03 +5.2988084224e-03 +3.8454764461e-02 3.8972854531e-02 5.1099893000e-04 0.0000e+00 1.0000e+00
<vert_displacement>
116.62736147314091
</vert_displacement>
</event>
<event>
 4   1200 +8.6263000e+09 2.27634800e-02 7.81665300e-03            nan
       50 -1    0    0    0    0 +1.7827162902e-02 -1.6594256633e-02 +7.2727174682e+00 7.2727599634e+00 4.9935713700e-03 0.0000e+00 0.0000e+00
       11 -1    0    0    0    0 -1.3947204892e-18 +1.2982632096e-18 -5.6898610960e-16 5.1100000000e-04 5.1099893000e-04 0.0000e+00 1.0000e+00
       50  1    1    2    0    0 +3.7035753628e-02 -6.8240823243e-03 +6.7527364594e+00 6.7528433153e+00 4.9935713700e-03 0.0000e+00 0.0000e+00
       11  1    1    2    0    0 -1.9208590727e-02 -9.7701743083e-03 +5.1998100880e-01 5.2042764809e-01 5.1099893000e-04 0.0000e+00 1.0000e+00
<vert_displacement>
170.10153844423220
</vert_displacement>
</event>
<event>
 4   1200 +8.6263000e+09 2.65291200e-02 7.81665300e-03            nan
       50 -1    0    0    0    0 +3.3986201319e-03 -5.2834243571e-03 +4.7535400588e+00 4.7535468328e+00 4.9935713700e-03 0.0000e+00 0.0000e+00
       11 -1    0    0    0    0 -3.9192451241e-19 +6.0927771702e-19 -5.4817213971e-16 5.1100000000e-04 5.1099893000e-04 0.0000e+00 1.0000e+00
       50  1    1    2    0    0 -6.7488396114e-03 -2.8626252427e-02 +3.9540693476e+00 3.9541818813e+00 4.9935713700e-03 0.0000e+00 0.0000e+00
       11  1    1    2    0    0 +1.0147459743e-02 +2.3342828070e-02 +7.9947071126e-01 7.9987595154e-01 5.1099893000e-04 0.0000e+00 1.0000e+00
<vert_displacement>
180.65906446265711
</vert_displacement>
</event>
<event>
 4   1200 +8.6263000e+09 1.49388100e-02 7.81665300e-03            nan
       50 -1    0    0    0    0 -4.2614715015e-03 +1.6426294888e-03 +6.0116495847e+00 6.0116533935e+00 4.9935713700e-03 0.0000e+00 0.0000e+00
       11 -1    0    0    0    0 -9.8375295079e-21 +3.7919803197e-21 +1.3877783803e-17 5.1100000000e-04 5.1099893000e-04 0.0000e+00 1.0000e+00
       50  1    1    2    0    0 -3.2760498203e-03 +1.5642021104e-02 +5.8109367321e+00 5.8109608539e+00 4.9935713700e-03 0.0000e+00 0.0000e+00
       11  1    1    2    0    0 -9.8542168123e-04 -1.3999391615e-02 +2.0071285269e-01 2.0120353967e-01 5.1099893000e-04 0.0000e+00 1.0000e+00
<vert_displacement>
247.93070258881855
</vert_displacement>
</event>
<event>
 4   1200 +8.6263000e+09 1.81440600e-02 7.81665300e-03            nan
       50 -1    0    0    0    0 -5.1217207887e-02 +3.1435693164e-02 +1.7216398909e+01 1.7216504515e+01 4.9935713700e-03 0.0000e+00 0.0000e+00
       11 -1    0    0    0    0 +1.0734072577e-18 -6.5882742514e-19 -3.6082028488e-16 5.1100000000e-04 5.1099893000e-04 0.0000e+00 1.0000e+00
       50  1    1    2    0    0 -3.3201335700e-02 +2.7510413601e-02 +1.6913385190e+01 1.6913440888e+01 4.9935713700e-03 0.0000e+00 0.0000e+00
       11  1    1    2    0    0 -1.8015872187e-02 +3.9252795639e-03 +3.0301371852e-01 3.0357462707e-01 5.1099893000e-04 0.0000e+00 1.0000e+00
<vert_displacement>
301.34685632804059
</vert_displacement>
</event>
<event>
 4   1200 +8.6263000e+09 6.07601400e-03 7.81665300e-03            nan
       50 -1    0    0    0    0 +6.4280515335e-03 +1.1153350827e-02 +8.7984442788e+00 8.7984551133e+00 4.9935713700e-03 0.0000e+00 0.0000e+00
       11 -1    0    0    0    0 +9.1250604312e-20 +1.5832947166e-19 +1.2489995658e-16 5.1100000000e-04 5.1099893000e-04 0.0000e+00 1.0000e+00
       50  1    1    2    0    0 +8.9100326385e-03 +1.3542481633e-02 +8.7866987778e+00 8.7867151505e+00 4.9935713700e-03 0.0000e+00 0.0000e+00
       11  1    1    2    0    0 -2.4819811051e-03 -2.3891308060e-03 +1.1745501028e-02 1.2250962841e-02 5.1099893000e-04 0.0000e+00 1.0000e+00
<vert_displacement>
83.926834589961928
</vert_displacement>
</event>
<event>
 4   1200 +8.6263000e+09 5.12189800e-03 7.81665300e-03            nan
       50 -1    0    0    0    0 -2.6594845874e-02 -1.6583108273e-02 +9.3685740940e+00 9.3686278491e+00 4.9935713700e-03 0.0000e+00 0.0000e+00
       11 -1    0    0    0    0 +5.9092593844e-19 +3.6846947206e-19 -2.0816565227e-16 5.1100000000e-04 5.1099893000e-04 0.0000e+00 1.0000e+00
       50  1    1    2    0    0 -2.7212316470e-02 -1.5625689375e-02 +9.3673036442e+00 9.3673575340e+00 4.9935713700e-03 0.0000e+00 0.0000e+00
       11  1    1    2    0    0 +6.1747059622e-04 -9.5741889798e-04 +1.2704498079e-03 1.7813151053e-03 5.1099893000e-04 0.0000e+00 1.0000e+00
<vert_displacement>
10.617519537003348
</vert_displacement>
</event>
<event>
 4   1200 +8.6263000e+09 7.44001100e-03 7.81665300e-03            nan
       50 -1    0    0    0    0 +1.2565416838e-02 -5.9093256216e-03 +9.2669760321e+00 9.2669877805e+00 4.9935713700e-03 0.0000e+00 0.0000e+00
       11 -1    0    0    0    0 -1.2231281806e-19 +5.7521869666e-20 -9.0205519487e-17 5.1100000000e-04 5.1099893000e-04 0.0000e+00 1.0000e+00
       50  1    1    2    0    0 +1.6923205944e-02 -2.5626522894e-03 +9.2371108910e+00 9.2371280986e+00 4.9935713700e-03 0.0000e+00 0.0000e+00
       11  1    1    2    0    0 -4.3577891065e-03 -3.3466733322e-03 +2.9865141064e-02 3.0370681898e-02 5.1099893000e-04 0.0000e+00 1.0000e+00
<vert_displacement>
356.04794060004895
</vert_displacement>
</event>
<event>
 4   1200 +8.6263000e+09 2.09064800e-02 7.81665300e-03            nan
       50 -1    0    0    0    0 -1.7009659737e-02 -1.5679002577e-02 +7.5888895761e+00 7.5889264784e+00 4.9935713700e-03 0.0000e+00 0.0000e+00
       11 -1    0    0    0    0 +6.0655505831e-19 +5.5910455995e-19 -2.7061560492e-16 5.1100000000e-04 5.1099893000e-04 0.0000e+00 1.0000e+00
       50  1    1    2    0    0 -2.5083958259e-02 -3.2977112778e-02 +7.1613802091e+00 7.1615018069e+00 4.9935713700e-03 0.0000e+00 0.0000e+00
       11  1    1    2    0    0 +8.0742985212e-03 +1.7298110201e-02 +4.2750936706e-01 4.2793567151e-01 5.1099893000e-04 0.0000e+00 1.0000e+00
<vert_displacement>
254.49286923477518
</vert_displacement>
</event>
<event>
 4   1200 +8.6263000e+09 8.14068700e-03 7.81665300e-03            nan
       50 -1    0    0    0    0 -8.4691416044e-02 -1.9245702773e-03 +2.6195296875e+01 2.6195434329e+01 4.9935713700e-03 0.0000e+00 0.0000e+00
       11 -1    0    0    0    0 -1.2159153254e-17 -2.7631070589e-19 +3.7608608301e-15 5.1100000000e-04 5.1099893000e-04 0.0000e+00 1.0000e+00
       50  1    1    2    0    0 -7.8783141954e-02 -4.7424816232e-03 +2.6154806841e+01 2.6154926402e+01 4.9935713700e-03 0.0000e+00 0.0000e+00
       11  1    1    2    0    0 -5.9082740898e-03 +2.8179113459e-03 +4.0490034430e-02 4.1018926548e-02 5.1099893000e-04 0.0000e+00 1.0000e+00
<vert_displacement>
19.509400742584827
</vert_displacement>
</event>
<event>
 4   1200 +8.6263000e+09 2.49042400e-02 7.81665300e-03            nan
       50 -1    0    0    0    0 +1.8940631565e-02 +1.1791963647e-02 +6.5128310992e+00 6.5128712301e+00 4.9935713700e-03 0.0000e+00 0.0000e+00
       11 -1    0    0    0    0 -6.0538770179e-19 -3.7689924684e-19 -2.0816559562e-16 5.1100000000e-04 5.1099893000e-04 0.0000e+00 1.0000e+00
       50  1    1    2    0    0 +1.7958120500e-02 +3.5002313772e-02 +5.8657515730e+00 5.8658856201e+00 4.9935713700e-03 0.0000e+00 0.0000e+00
       11  1    1    2    0    0 +9.8251106543e-04 -2.3210350125e-02 +6.4707952613e-01 6.4749660998e-01 5.1099893000e-04 0.0000e+00 1.0000e+00
<vert_displacement>
4.5406563288542303
</vert_displacement>
</event>
<event>
 4   1200 +8.6263000e+09 2.21551500e-02 7.81665300e-03            nan
       50 -1    0    0    0    0 +3.5042141968e-03 +1.2087739319e-02 +5.1326968085e+00 5.1327146674e+00 4.9935713700e-03 0.0000e+00 0.0000e+00
       11 -1    0    0    0    0 -1.8475601331e-19 -6.3731336075e-19 -2.7061604873e-16 5.1100000000e-04 5.1099893000e-04 0.0000e+00 1.0000e+00
       50  1    1    2    0    0 -4.5943595586e-03 +3.1040500937e-02 +4.6265951095e+00 4.6267042118e+00 4.9935713700e-03 0.0000e+00 0.0000e+00
       11  1    1    2    0    0 +8.0985737555e-03 -1.8952761617e-02 +5.0610169906e-01 5.0652145559e-01 5.1099893000e-04 0.0000e+00 1.0000e+00
<vert_displacement>
325.60878527763612
</vert_displacement>
</event>
<event>
 4   1200 +8.6263000e+09 1.24027800e-02 7.81665300e-03            nan
       50 -1    0    0    0    0 +5.8091989182e-03 +6.9228984293e-03 +5.3783189251e+00 5.3783288361e+00 4.9935713700e-03 0.0000e+00 0.0000e+00
       11 -1    0    0    0    0 -5.2463513284e-20 -6.2521455853e-20 -4.8572188756e-17 5.1100000000e-04 5.1099893000e-04 0.0000e+00 1.0000e+00
       50  1    1    2    0    0 +1.3283606001e-02 +1.5177903985e-02 +5.2490494528e+00 5.2490905800e+00 4.9935713700e-03 0.0000e+00 0.0000e+00
       11  1    1    2    0    0 -7.4744070826e-03 -8.2550055558e-03 +1.2926947229e-01 1.2974925613e-01 5.1099893000e-04 0.0000e+00 1.0000e+00
<vert_displacement>
303.47616600258272
</vert_displacement>
</event>
<event>
 4   1200 +8.6263000e+09 2.87701100e-02 7.81665300e-03            nan
       50 -1    0    0    0    0 +1.2275831034e-02 +2.8348712200e-02 +1.8601054460e+01 1.8601080783e+01 4.9935713700e-03 0.0000e+00 0.0000e+00
       11 -1    0    0    0    0 -8.7923347533e-19 -2.0304235761e-18 -1.3322657922e-15 5.1100000000e-04 5.1099893000e-04 0.0000e+00 1.0000e+00
       50  1    1    2    0    0 +3.8669457260e-02 +3.5884342365e-02 +1.7779138312e+01 1.7779217280e+01 4.9935713700e-03 0.0000e+00 0.0000e+00
       11  1    1    2    0    0 -2.6393626226e-02 -7.5356301654e-03 +8.2191614784e-01 8.2237450376e-01 5.1099893000e-04 0.0000e+00 1.0000e+00
<vert_displacement>
250.52006819541094
</vert_displacement>
</event>
<event>
 4   1200 +8.6263000e+09 1.08649800e-02 7.81665300e-03            nan
       50 -1    0    0    0    0 -3.0265839827e-02 -1.1604040014e-02 +1.4166453350e+01 1.4166491313e+01 4.9935713700e-03 0.0000e+00 0.0000e+00
       11 -1    0    0    0    0 -1.4231541282e-18 -5.4564279543e-19 +6.6613207106e-16 5.1100000000e-04 5.1099893000e-04 0.0000e+00 1.0000e+00
       50  1    1    2    0    0 -2.2479206216e-02 -1.7486526044e-02 +1.4074759292e+01 1.4074788991e+01 4.9935713700e-03 0.0000e+00 0.0000e+00
       11  1    1    2    0    0 -7.7866336103e-03 +5.8824860301e-03 +9.1694057943e-02 9.2213321634e-02 5.1099893000e-04 0.0000e+00 1.0000e+00
<vert_displacement>
336.58878696104273
</vert_displacement>
</event>
<event>
 4   1200 +8.6263000e+09 1.61261300e-02 7.81665300e-03            nan
       50 -1    0    0    0    0 -8.9751081838e-03 +1.9299638335e-03 +2.6001902162e+00 2.6002112171e+00 4.9935713700e-03 0.0000e+00 0.0000e+00
       11 -1    0    0    0    0 +1.1975457589e-19 -2.5751444510e-20 -3.4694253284e-17 5.1100000000e-04 5.1099893000e-04 0.0000e+00 1.0000e+00
       50  1    1    2    0    0 -2.1981566802e-02 +8.2391585461e-03 +2.3447142743e+00 2.3448371024e+00 4.9935713700e-03 0.0000e+00 0.0000e+00
       11  1    1    2    0    0 +1.3006458618e-02 -6.3091947126e-03 +2.5547594192e-01 2.5588511470e-01 5.1099893000e-04 0.0000e+00 1.0000e+00
<vert_displacement>
433.93214786746506
</vert_displacement>
</event>
<event>
 4   1200 +8.6263000e+09 3.30239700e-02 7.81665300e-03            nan
       50 -1    0    0    0    0 -1.1809676683e-05 -6.2540678026e-02 +3.4027537986e+01 3.4027595826e+01 4.9935713700e-03 0.0000e+00 0.0000e+00
       11 -1    0    0    0    0 -5.2980941899e-22 -2.8057195109e-18 +1.5265540805e-15 5.1100000000e-04 5.1099893000e-04 0.0000e+00 1.0000e+00
       50  1    1    2    0    0 +3.1404343241e-02 -6.9432576770e-02 +3.2950699755e+01 3.2950788252e+01 4.9935713700e-03 0.0000e+00 0.0000e+00
       11  1    1    2    0    0 -3.1416152918e-02 +6.8918987449e-03 +1.0768382307e+00 1.0773185737e+00 5.1099893000e-04 0.0000e+00 1.0000e+00
<vert_displacement>
457.87599532628195
</vert_displacement>
</event>
<event>
 4   1200 +8.6263000e+09 2.56080000e-02 7.81665300e-03            nan
       50 -1    0    0    0    0 -1.5281429115e-03 -1.7569335433e-02 +1.3479430330e+01 1.3479442792e+01 4.9935713700e-03 0.0000e+00 0.0000e+00
       11 -1    0    0    0    0 -1.2743752340e-19 -1.4651722549e-18 +1.1240998503e-15 5.1100000000e-04 5.1099893000e-04 0.0000e+00 1.0000e+00
       50  1    1    2    0    0 -4.8857536781e-03 +8.1568962943e-03 +1.2830926349e+01 1.2830930844e+01 4.9935713700e-03 0.0000e+00 0.0000e+00
       11  1    1    2    0    0 +3.3576107666e-03 -2.5726231727e-02 +6.4850398076e-01 6.4902294777e-01 5.1099893000e-04 0.0000e+00 1.0000e+00
<vert_displacement>
423.68317149573312
</vert_displacement>
</event>
<event>
 4   1200 +8.6263000e+09 1.85188600e-02 7.81665300e-03            nan
       50 -1    0    0    0    0 +2.3294108133e-02 +3.2276018326e-02 +2.5869552334e+01 2.5869583438e+01 4.9935713700e-03 0.0000e+00 0.0000e+00
       11 -1    0    0    0    0 +8.7473185505e-20 +1.2120172716e-19 +9.7144399664e-17 5.1100000000e-04 5.1099893000e-04 0.0000e+00 1.0000e+00
       50  1    1    2    0    0 +3.6220032602e-02 +1.9903028701e-02 +2.5554543321e+01 2.5554577228e+01 4.9935713700e-03 0.0000e+00 0.0000e+00
       11  1    1    2    0    0 -1.2925924470e-02 +1.2372989625e-02 +3.1500901326e-01 3.1551721023e-01 5.1099893000e-04 0.0000e+00 1.0000e+00
<vert_displacement>
97.497958614995824
</vert_displacement>
</event>
<event>
 4   1200 +8.6263000e+09 6.92507000e-03 7.81665300e-03            nan
       50 -1    0    0    0    0 +4.4645013981e-02 -1.0973311026e-02 +1.3881853290e+01 1.3881930316e+01 4.9935713700e-03 0.0000e+00 0.0000e+00
       11 -1    0    0    0    0 +3.6821147836e-18 -9.0502806811e-19 +1.1449112155e-15 5.1100000000e-04 5.1099893000e-04 0.0000e+00 1.0000e+00
       50  1    1    2    0    0 +4.3607197342e-02 -6.2555739473e-03 +1.3859297387e+01 1.3859368301e+01 4.9935713700e-03 0.0000e+00 0.0000e+00
       11  1    1    2    0    0 +1.0378166394e-03 -4.7177370786e-03 +2.2555902951e-02 2.3073014202e-02 5.1099893000e-04 0.0000e+00 1.0000e+00
<vert_displacement>
450.86946978168504
</vert_displacement>
</event>
<event>
 4   1200 +8.6263000e+09 5.37315700e-03 7.81665300e-03            nan
       50 -1    0    0    0    0 -2.1224415774e-02 -1.4964036564e-02 +1.1750056518e+01 1.1750086277e+01 4.9935713700e-03 0.0000e+00 0.0000e+00
       11 -1    0    0    0    0 +1.5541991270e-18 +1.0957706828e-18 -8.6042074265e-16 5.1100000000e-04 5.1099893000e-04 0.0000e+00 1.0000e+00
       50  1    1    2    0    0 -2.1237803114e-02 -1.6942723290e-02 +1.1746202182e+01 1.1746234663e+01 4.9935713700e-03 0.0000e+00 0.0000e+00
       11  1    1    2    0    0 +1.3387339793e-05 +1.9786867259e-03 +3.8543357497e-03 4.3626143948e-03 5.1099893000e-04 0.0000e+00 1.0000e+00
<vert_displacement>
282.68561263078175
</vert_displacement>
</event>
<event>
 4   1200 +8.6263000e+09 1.35220700e-02 7.81665300e-03            nan
       50 -1    0    0    0    0 -3.3416048881e-02 +4.9476411359e-02 +4.8648740296e+01 4.8648777188e+01 4.9935713700e-03 0.0000e+00 0.0000e+00
       11 -1    0    0    0    0 -3.9654889565e-18 +5.8713752650e-18 +5.7731553805e-15 5.1100000000e-04 5.1099893000e-04 0.0000e+00 1.0000e+00
       50  1    1    2    0    0 -2.9545465661e-02 +3.7329525690e-02 +4.8493748020e+01 4.8493771645e+01 4.9935713700e-03 0.0000e+00 0.0000e+00
       11  1    1    2    0    0 -3.8705832198e-03 +1.2146885669e-02 +1.5499227592e-01 1.5551654240e-01 5.1099893000e-04 0.0000e+00 1.0000e+00
<vert_displacement>
85.191366155857011
</vert_displacement>
</event>
<event>
 4   1200 +8.6263000e+09 1.20875300e-02 7.81665300e-03            nan
       50 -1    0    0    0    0 -2.5887132061e-02 +3.4987366471e-02 +1.7404813576e+01 1.7404868710e+01 4.9935713700e-03 0.0000e+00 0.0000e+00
       11 -1    0    0    0    0 -1.7132137080e-18 +2.3154683843e-18 +1.1518527867e-15 5.1100000000e-04 5.1099893000e-04 0.0000e+00 -1.0000e+00
       50  1    1    2    0    0 -3.3420028629e-02 +4.2603620526e-02 +1.7285398850e+01 1.7285484381e+01 4.9935713700e-03 0.0000e+00 0.0000e+00
       11  1    1    2    0    0 +7.5328965679e-03 -7.6162540548e-03 +1.1941472587e-01 1.1989532823e-01 5.1099893000e-04 0.0000e+00 -1.0000e+00
<vert_displacement>
464.67157449969591
</vert_displacement>
</event>
<event>
 4   1200 +8.6263000e+09 1.49500100e-02 7.81665300e-03            nan
       50 -1    0    0    0    0 +1.2047707572e-02 +8.7007637126e-03 +1.3091111183e+01 1.3091120570e+01 4.9935713700e-03 0.0000e+00 0.0000e+00
       11 -1    0    0    0    0 -3.7676442175e-19 -2.7209642909e-19 -4.0939447654e-16 5.1100000000e-04 5.1099893000e-04 0.0000e+00 1.0000e+00
       50  1    1    2    0    0 +7.4554301217e-03 -4.8136411686e-03 +1.2893845677e+01 1.2893849698e+01 4.9935713700e-03 0.0000e+00 0.0000e+00
       11  1    1    2    0    0 +4.5922774502e-03 +1.3514404881e-02 +1.9726550563e-01 1.9778187223e-01 5.1099893000e-04 0.0000e+00 1.0000e+00
<vert_displacement>
257.81683844681618
</vert_displacement>
</event>
<event>
 4   1200 +8.6263000e+09 2.98126700e-02 7.81665300e-03            nan
       50 -1    0    0    0    0 -4.8931161289e-02 +1.2400844516e-02 +2.2737649793e+01 2.2737706372e+01 4.9935713700e-03 0.0000e+00 0.0000e+00
       11 -1    0    0    0    0 -3.6136367379e-18 +9.1582022871e-19 +1.6792081868e-15 5.1100000000e-04 5.1099893000e-04 0.0000e+00 1.0000e+00
       50  1    1    2    0    0 -6.4676542730e-02 -1.1589821731e-02 +2.1858302085e+01 2.1858401413e+01 4.9935713700e-03 0.0000e+00 0.0000e+00
       11  1    1    2    0    0 +1.5745381440e-02 +2.3990666247e-02 +8.7934770800e-01 8.7981595905e-01 5.1099893000e-04 0.0000e+00 1.0000e+00
<vert_displacement>
400.45252775901622
</vert_displacement>
</event>
<event>
 4   1200 +8.6263000e+09 1.14589800e-02 7.81665300e-03            nan
       50 -1    0    0    0    0 +3.8575847767e-02 +4.4084882886e-02 +1.7170297056e+01 1.7170397709e+01 4.9935713700e-03 0.0000e+00 0.0000e+00
       11 -1    0    0    0    0 +3.4296363292e-18 +3.9194243202e-18 +1.5265477747e-15 5.1100000000e-04 5.1099893000e-04 0.0000e+00 1.0000e+00
       50  1    1    2    0    0 +2.8116279458e-02 +4.2461132854e-02 +1.7065598776e+01 1.7065675492e+01 4.9935713700e-03 0.0000e+00 0.0000e+00
       11  1    1    2    0    0 +1.0459568309e-02 +1.6237500322e-03 +1.0469828010e-01 1.0523321770e-01 5.1099893000e-04 0.0000e+00 1.0000e+00
<vert_displacement>
463.76379021850937
</vert_displacement>
</event>
<event>
 4   1200 +8.6263000e+09 1.44766900e-02 7.81665300e-03            nan
       50 -1    0    0    0    0 -4.9807069091e-02 -3.1785596105e-02 +2.4269953604e+01 2.4270026039e+01 4.9935713700e-03 0.0000e+00 0.0000e+00
       11 -1    0    0    0    0 -5.0694518023e-18 -3.2351943288e-18 +2.4702389095e-15 5.1100000000e-04 5.1099893000e-04 0.0000e+00 1.0000e+00
       50  1    1    2    0    0 -4.5763980800e-02 -4.4630514820e-02 +2.4087909873e+01 2.4087995209e+01 4.9935713700e-03 0.0000e+00 0.0000e+00
       11  1    1    2    0    0 -4.0430882917e-03 +1.2844918716e-02 +1.8204373073e-01 1.8254182950e-01 5.1099893000e-04 0.0000e+00 1.0000e+00
<vert_displacement>
190.31624269657985
</vert_displacement>
</event>
<event>
 4   1200 +8.6263000e+09 1.51916100e-02 7.81665300e-03            nan
       50 -1    0    0    0    0 -1.0383255053e-02 -6.0160486071e-03 +3.1506939883e+00 3.1507207982e+00 4.9935713700e-03 0.0000e+00 0.0000e+00
       11 -1    0    0    0    0 -1.3834700749e-18 -8.0158131284e-19 +4.1980003627e-16 5.1100000000e-04 5.1099893000e-04 0.0000e+00 1.0000e+00
       50  1    1    2    0    0 -9.3623440080e-03 -1.9946913367e-02 +2.9342368823e+00 2.9343238659e+00 4.9935713700e-03 0.0000e+00 0.0000e+00
       11  1    1    2    0    0 -1.0209110454e-03 +1.3930864760e-02 +2.1645710598e-01 2.1690793232e-01 5.1099893000e-04 0.0000e+00 1.0000e+00
<vert_displacement>
345.33962749744410
</vert_displacement>
</event>
<event>
 4   1200 +8.6263000e+09 1.39525700e-02 7.81665300e-03            nan
       50 -1    0    0    0    0 -1.1298713841e-02 -1.1801658009e-03 +1.0229331224e+01 1.0229338751e+01 4.9935713700e-03 0.0000e+00 0.0000e+00
       11 -1    0    0    0    0 -1.9160716993e-19 -2.0013625652e-20 +1.7347224062e-16 5.1100000000e-04 5.1099893000e-04 0.0000e+00 1.0000e+00
       50  1    1    2    0    0 -1.1992967676e-02 +1.1837882266e-02 +1.0060444004e+01 1.0060459356e+01 4.9935713700e-03 0.0000e+00 0.0000e+00
       11  1    1    2    0    0 +6.9425383522e-04 -1.3018048067e-02 +1.6888722069e-01 1.6939039523e-01 5.1099893000e-04 0.0000e+00 1.0000e+00
<vert_displacement>
338.71907021592477
</vert_displacement>
</event>
<event>
 4   1200 +8.6263000e+09 1.53351600e-02 7.81665300e-03            nan
       50 -1    0    0    0    0 +1.3127538683e-02 -2.8511839058e-03 +1.4535181742e+01 1.4535188808e+01 4.9935713700e-03 0.0000e+00 0.0000e+00
       11 -1    0    0    0    0 +1.5479247891e-18 -3.3619540970e-19 +1.7139060623e-15 5.1100000000e-04 5.1099893000e-04 0.0000e+00 -1.0000e+00
       50  1    1    2    0    0 -8.1461934552e-04 +1.7797487171e-03 +1.4326480208e+01 1.4326481212e+01 4.9935713700e-03 0.0000e+00 0.0000e+00
       11  1    1    2    0    0 +1.3942158029e-02 -4.6309326229e-03 +2.0870153374e-01 2.0921859529e-01 5.1099893000e-04 0.0000e+00 -1.0000e+00
<vert_displacement>
165.86988797811082
</vert_displacement>
</event>
<event>
 4   1200 +8.6263000e+09 2.27723100e-02 7.81665300e-03            nan
       50 -1    0    0    0    0 -1.7341894230e-02 +4.6795723376e-03 +6.9888471630e+00 6.9888720294e+00 4.9935713700e-03 0.0000e+00 0.0000e+00
       11 -1    0    0    0    0 -5.1653654995e-19 +1.3938328296e-19 +2.0816612960e-16 5.1100000000e-04 5.1099893000e-04 0.0000e+00 1.0000e+00
       50  1    1    2    0    0 -5.2912678563e-03 +2.3771507854e-02 +6.4666573497e+00 6.4667051344e+00 4.9935713700e-03 0.0000e+00 0.0000e+00
       11  1    1    2    0    0 -1.2050626374e-02 -1.9091935516e-02 +5.2218981337e-01 5.2267789498e-01 5.1099893000e-04 0.0000e+00 1.0000e+00
<vert_displacement>
485.82970620483218
</vert_displacement>
</event>
<event>
 4   1200 +8.6263000e+09 8.73825100e-03 7.81665300e-03            nan
       50 -1    0    0    0    0 -2.1197772888e-02 -3.8616078586e-02 +1.5382716351e+01 1.5382780237e+01 4.9935713700e-03 0.0000e+00 0.0000e+00
       11 -1    0    0    0    0 -1.4151659959e-18 -2.5780142848e-18 +1.0269520869e-15 5.1100000000e-04 5.1099893000e-04 0.0000e+00 1.0000e+00
       50  1    1    2    0    0 -1.8072551715e-02 -4.4976577017e-02 +1.5332222523e+01 1.5332299956e+01 4.9935713700e-03 0.0000e+00 0.0000e+00
       11  1    1    2    0    0 -3.1252211735e-03 +6.3604984307e-03 +5.0493827121e-02 5.0991280087e-02 5.1099893000e-04 0.0000e+00 1.0000e+00
<vert_displacement>
485.21553751929787
</vert_displacement>
</event>
<event>
 4   1200 +8.6263000e+09 2.62280100e-02 7.81665300e-03            nan
       50 -1    0    0    0    0 -1.3275602519e-02 +3.8783454222e-03 +7.3583252165e+00 7.3583399086e+00 4.9935713700e-03 0.0000e+00 0.0000e+00
       11 -1    0    0    0    0 -0.0000000000e+00 +0.0000000000e+00 +0.0000000000e+00 5.1100000000e-04 5.1099893000e-04 0.0000e+00 -1.0000e+00
       50  1    1    2    0    0 -3.7439126135e-02 -3.3432665995e-04 +6.6389940931e+00 6.6391015434e+00 4.9935713700e-03 0.0000e+00 0.0000e+00
       11  1    1    2    0    0 +2.4163523616e-02 +4.2126720822e-03 +7.1933112341e-01 7.1974936520e-01 5.1099893000e-04 0.0000e+00 -1.0000e+00
<vert_displacement>
82.879734406230043
</vert_displacement>
</event>
<event>
 4   1200 +8.6263000e+09 5.38475100e-03 7.81665300e-03            nan
       50 -1    0    0    0    0 +3.4815169452e-02 -2.8311434603e-02 +1.2155361625e+01 1.2155445480e+01 4.9935713700e-03 0.0000e+00 0.0000e+00
       11 -1    0    0    0    0 +1.0930766242e-18 -8.8888171015e-19 +3.8163656418e-16 5.1100000000e-04 5.1099893000e-04 0.0000e+00 1.0000e+00
       50  1    1    2    0    0 +3.6087904223e-02 -2.6749491622e-02 +1.2151387722e+01 1.2151471778e+01 4.9935713700e-03 0.0000e+00 0.0000e+00
       11  1    1    2    0    0 -1.2727347715e-03 -1.5619429813e-03 +3.9739031137e-03 4.4847012764e-03 5.1099893000e-04 0.0000e+00 1.0000e+00
<vert_displacement>
417.94265985913023
</vert_displacement>
</event>
<event>
 4   1200 +8.6263000e+09 2.44179400e-02 7.81665300e-03            nan
       50 -1    0    0    0    0 -8.0683770637e-02 -2.2547198463e-02 +2.4322753116e+01 2.4322897901e+01 4.9935713700e-03 0.0000e+00 0.0000e+00
       11 -1    0    0    0    0 -1.0127769349e-18 -2.8302200517e-19 +3.0530952080e-16 5.1100000000e-04 5.1099893000e-04 0.0000e+00 1.0000e+00
       50  1    1    2    0    0 -1.0255544231e-01 -2.4515234781e-02 +2.3750172967e+01 2.3750407565e+01 4.9935713700e-03 0.0000e+00 0.0000e+00
       11  1    1    2    0    0 +2.1871671677e-02 +1.9680363174e-03 +5.7258014888e-01 5.7300133612e-01 5.1099893000e-04 0.0000e+00 1.0000e+00
<vert_displacement>
459.11471181342051
</vert_displacement>
</event>
<event>
 4   1200 +8.6263000e+09 2.35557600e-02 7.81665300e-03            nan
       50 -1    0    0    0    0 -6.3050089142e-04 +2.1602456262e-03 +4.0574122886e+00 4.0574159856e+00 4.9935713700e-03 0.0000e+00 0.0000e+00
       11 -1    0    0    0    0 +1.1860948773e-20 -4.0638424243e-20 -7.6327821203e-17 5.1100000000e-04 5.1099893000e-04 0.0000e+00 1.0000e+00
       50  1    1    2    0    0 -2.3030184532e-02 -3.0568406991e-03 +3.4461915025e+00 3.4462734281e+00 4.9935713700e-03 0.0000e+00 0.0000e+00
       11  1    1    2    0    0 +2.2399683640e-02 +5.2170863254e-03 +6.1122078613e-01 6.1165355744e-01 5.1099893000e-04 0.0000e+00 1.0000e+00
<vert_displacement>
438.07477536478052
</vert_displacement>
</event>
<event>
 4   1200 +8.6263000e+09 2.44751300e-02 7.81665300e-03            nan
       50 -1    0    0    0    0 -6.5136290712e-02 +2.3584013389e-02 +3.5550781312e+01 3.5550849157e+01 4.9935713700e-03 0.0000e+00 0.0000e+00
       11 -1    0    0    0    0 +3.3817767407e-18 -1.2244459588e-18 -1.8457422742e-15 5.1100000000e-04 5.1099893000e-04 0.0000e+00 1.0000e+00
       50  1    1    2    0    0 -5.0237058820e-02 +3.6557529485e-03 +3.4979900073e+01 3.4979936694e+01 4.9935713700e-03 0.0000e+00 0.0000e+00
       11  1    1    2    0    0 -1.4899231892e-02 +1.9928260441e-02 +5.7088123926e-01 5.7142346219e-01 5.1099893000e-04 0.0000e+00 1.0000e+00
<vert_displacement>
9.8645408722609425
</vert_displacement>
</event>
<event>
 4   1200 +8.6263000e+09 2.39408600e-02 7.81665300e-03            nan
       50 -1    0    0    0    0 +2.7180111114e-02 -2.5429384507e-02 +2.4501432890e+01 2.4501461671e+01 4.9935713700e-03 0.0000e+00 0.0000e+00
       11 -1    0    0    0    0 +4.3105979435e-18 -4.0329435041e-18 +3.8857761024e-15 5.1100000000e-04 5.1099893000e-04 0.0000e+00 1.0000e+00
       50  1    1    2    0    0 +5.7249392025e-03 -3.5520770389e-02 +2.3952704797e+01 2.3952732340e+01 4.9935713700e-03 0.0000e+00 0.0000e+00
       11  1    1    2    0    0 +2.1455171912e-02 +1.0091385882e-02 +5.4872809324e-01 5.4924033164e-01 5.1099893000e-04 0.0000e+00 1.0000e+00
<vert_displacement>
311.95396418259378
</vert_displacement>
</event>
<event>
 4   1200 +8.6263000e+09 1.77076900e-02 7.81665300e-03            nan
       50 -1    0    0    0    0 -3.3075056609e-02 -1.5964985480e-02 +1.2414032897e+01 1.2414088229e+01 4.9935713700e-03 0.0000e+00 0.0000e+00
       11 -1    0    0    0    0 -1.0907571348e-18 -5.2649711309e-19 +4.0939294872e-16 5.1100000000e-04 5.1099893000e-04 0.0000e+00 1.0000e+00
       50  1    1    2    0    0 -1.7862434387e-02 -2.4540144736e-02 +1.2124886762e+01 1.2124925781e+01 4.9935713700e-03 0.0000e+00 0.0000e+00
       11  1    1    2    0    0 -1.5212622222e-02 +8.5751592552e-03 +2.8914613532e-01 2.8967344704e-01 5.1099893000e-04 0.0000e+00 1.0000e+00
<vert_displacement>
354.32177869952363
</vert_displacement>
</event>
<event>
 4   1200 +8.6263000e+09 1.30751900e-02 7.81665300e-03            nan
       50 -1    0    0    0    0 +7.9881282785e-03 -4.8791334113e-03 +2.5552387216e+01 2.5552389419e+01 4.9935713700e-03 0.0000e+00 0.0000e+00
       11 -1    0    0    0    0 +2.6898338433e-19 -1.6429453456e-19 +8.6042278635e-16 5.1100000000e-04 5.1099893000e-04 0.0000e+00 1.0000e+00
       50  1    1    2    0    0 +1.8582329472e-02 +8.7840246935e-04 +2.5408691758e+01 2.5408699059e+01 4.9935713700e-03 0.0000e+00 0.0000e+00
       11  1    1    2    0    0 -1.0594201193e-02 -5.7575358806e-03 +1.4369545812e-01 1.4420135964e-01 5.1099893000e-04 0.0000e+00 1.0000e+00
<vert_displacement>
211.97961202973340
</vert_displacement>
</event>
<event>
 4   1200 +8.6263000e+09 2.23963600e-02 7.81665300e-03            nan
       50 -1    0    0    0    0 +5.2281556684e-03 +1.1777558729e-03 +9.4817881910e+00 9.4817910205e+00 4.9935713700e-03 0.0000e+00 0.0000e+00
       11 -1    0    0    0    0 +5.1651413014e-19 +1.1635605151e-19 +9.3675052740e-16 5.1100000000e-04 5.1099893000e-04 0.0000e+00 1.0000e+00
       50  1    1    2    0    0 -1.7632789309e-03 +2.1889244718e-02 +8.9897669652e+00 8.9897951741e+00 4.9935713700e-03 0.0000e+00 0.0000e+00
       11  1    1    2    0    0 +6.9914345993e-03 -2.0711488845e-02 +4.9202122584e-01 4.9250684637e-01 5.1099893000e-04 0.0000e+00 1.0000e+00
<vert_displacement>
336.52901064366739
</vert_displacement>
</event>
<event>
 4   1200 +8.6263000e+09 7.79466200e-03 7.81665300e-03            nan
       50 -1    0    0    0    0 -1.2055663994e-01 -1.0508638207e-01 +4.5371212202e+01 4.5371494340e+01 4.9935713700e-03 0.0000e+00 0.0000e+00
       11 -1    0    0    0    0 -5.4574531071e-18 -4.7571332664e-18 +2.0538998359e-15 5.1100000000e-04 5.1099893000e-04 0.0000e+00 1.0000e+00
       50  1    1    2    0    0 -1.1778842455e-01 -9.9651173596e-02 +4.5336154498e+01 4.5336417305e+01 4.9935713700e-03 0.0000e+00 0.0000e+00
       11  1    1    2    0    0 -2.7682153936e-03 -5.4352084770e-03 +3.5057704106e-02 3.5588035134e-02 5.1099893000e-04 0.0000e+00 1.0000e+00
<vert_displacement>
431.34081106629827
</vert_displacement>
</event>
<event>
 4   1200 +8.6263000e+09 1.92256000e-02 7.81665300e-03            nan
       50 -1    0    0    0    0 -3.9589414927e-03 -5.3604115664e-04 +4.7987124494e+00 4.7987167106e+00 4.9935713700e-03 0.0000e+00 0.0000e+00
       11 -1    0    0    0    0 +5.7245908687e-20 +7.7511029558e-21 -6.9388914992e-17 5.1100000000e-04 5.1099893000e-04 0.0000e+00 1.0000e+00
       50  1    1    2    0    0 +1.3892094413e-02 -6.5529097711e-03 +4.4334827595e+00 4.4335121795e+00 4.9935713700e-03 0.0000e+00 0.0000e+00
       11  1    1    2    0    0 -1.7851035905e-02 +6.0168686145e-03 +3.6522968994e-01 3.6571553115e-01 5.1099893000e-04 0.0000e+00 1.0000e+00
<vert_displacement>
400.16635219086476
</vert_displacement>
</event>
<event>
 4   1200 +8.6263000e+09 2.17330600e-02 7.81665300e-03            nan
       50 -1    0    0    0    0 +8.8986173938e-03 -6.9260479483e-03 +7.3470417157e+00 7.3470520662e+00 4.9935713700e-03 0.0000e+00 0.0000e+00
       11 -1    0    0    0    0 +2.7734076169e-19 -2.1586223213e-19 +2.2898322913e-16 5.1100000000e-04 5.1099893000e-04 0.0000e+00 1.0000e+00
       50  1    1    2    0    0 +2.9197917968e-02 -3.0194063645e-03 +6.8793651274e+00 6.8794295641e+00 4.9935713700e-03 0.0000e+00 0.0000e+00
       11  1    1    2    0    0 -2.0299300574e-02 -3.9066415838e-03 +4.6767658830e-01 4.6813350213e-01 5.1099893000e-04 0.0000e+00 1.0000e+00
<vert_displacement>
131.64099164608140
</vert_displacement>
</event>
<event>
 4   1200 +8.6263000e+09 3.07635800e-02 7.81665300e-03            nan
       50 -1    0    0    0    0 +1.9789264105e-02 -5.9372544258e-02 +2.6751558697e+01 2.6751632368e+01 4.9935713700e-03 0.0000e+00 0.0000e+00
       11 -1    0    0    0    0 -1.1805855078e-18 +3.5420400142e-18 -1.5959412306e-15 5.1100000000e-04 5.1099893000e-04 0.0000e+00 1.0000e+00
       50  1    1    2    0    0 +4.0625885799e-02 -7.8700205839e-02 +2.5817193898e+01 2.5817346298e+01 4.9935713700e-03 0.0000e+00 0.0000e+00
       11  1    1    2    0    0 -2.0836621693e-02 +1.9327661581e-02 +9.3436479927e-01 9.3479707025e-01 5.1099893000e-04 0.0000e+00 1.0000e+00
<vert_displacement>
102.16003300045243
</vert_displacement>
</event>
<event>
 4   1200 +8.6263000e+09 1.05244600e-02 7.81665300e-03            nan
       50 -1    0    0    0    0 +8.1077438810e-03 -7.3273097374e-02 +4.6908653035e+01 4.6908711229e+01 4.9935713700e-03 0.0000e+00 0.0000e+00
       11 -1    0    0    0    0 -7.4837859800e-19 +6.7634126939e-18 -4.3298644490e-15 5.1100000000e-04 5.1099893000e-04 0.0000e+00 1.0000e+00
       50  1    1    2    0    0 +4.2563877561e-03 -8.1574192180e-02 +4.6824507739e+01 4.6824579255e+01 4.9935713700e-03 0.0000e+00 0.0000e+00
       11  1    1    2    0    0 +3.8513561250e-03 +8.3010948067e-03 +8.4145295466e-02 8.4642973648e-02 5.1099893000e-04 0.0000e+00 1.0000e+00
<vert_displacement>
209.83532652040915
</vert_displacement>
</event>
<event>
 4   1200 +8.6263000e+09 1.35973800e-02 7.81665300e-03            nan
       50 -1    0    0    0    0 +2.3824805289e-02 -8.0480135390e-03 +7.0191404263e+00 7.0191872501e+00 4.9935713700e-03 0.0000e+00 0.0000e+00
       11 -1    0    0    0    0 -4.9459780379e-19 +1.6707502005e-19 -1.4571583681e-16 5.1100000000e-04 5.1099893000e-04 0.0000e+00 1.0000e+00
       50  1    1    2    0    0 +3.5921217574e-02 -8.2864020060e-03 +6.8589084688e+00 6.8590093539e+00 4.9935713700e-03 0.0000e+00 0.0000e+00
       11  1    1    2    0    0 -1.2096412285e-02 +2.3838846704e-04 +1.6023195752e-01 1.6068889616e-01 5.1099893000e-04 0.0000e+00 1.0000e+00
<vert_displacement>
223.50949441130990
</vert_displacement>
</event>
<event>
 4   1200 +8.6263000e+09 1.07679300e-02 7.81665300e-03            nan
       50 -1    0    0    0    0 -1.0083294355e-02 -4.2567494064e-03 +7.6027275718e+00 7.6027370900e+00 4.9935713700e-03 0.0000e+00 0.0000e+00
       11 -1    0    0    0    0 -3.1289723895e-19 -1.3209225966e-19 +2.3592214826e-16 5.1100000000e-04 5.1099893000e-04 0.0000e+00 1.0000e+00
       50  1    1    2    0    0 -4.8313155812e-03 +3.8355158565e-03 +7.5126076037e+00 7.5126117959e+00 4.9935713700e-03 0.0000e+00 0.0000e+00
       11  1    1    2    0    0 -5.2519787736e-03 -8.0922652629e-03 +9.0119968039e-02 9.0636294041e-02 5.1099893000e-04 0.0000e+00 1.0000e+00
<vert_displacement>
222.36620580502989
</vert_displacement>
</event>
<event>
 4   1200 +8.6263000e+09 3.02168300e-02 7.81665300e-03            nan
       50 -1    0    0    0    0 -4.5897875082e-02 -9.8955207126e-05 +2.0193224151e+01 2.0193276930e+01 4.9935713700e-03 0.0000e+00 0.0000e+00
       11 -1    0    0    0    0 +5.8670390486e-18 +1.2649258015e-20 -2.5812618645e-15 5.1100000000e-04 5.1099893000e-04 0.0000e+00 1.0000e+00
       50  1    1    2    0    0 -4.3415492338e-02 +2.9703986956e-02 +1.9283136931e+01 1.9283209330e+01 4.9935713700e-03 0.0000e+00 0.0000e+00
       11  1    1    2    0    0 -2.4823827439e-03 -2.9802942163e-02 +9.1008722036e-01 9.1057860033e-01 5.1099893000e-04 0.0000e+00 1.0000e+00
<vert_displacement>
37.121935711661678
</vert_displacement>
</event>
<event>
 4   1200 +8.6263000e+09 1.71743800e-02 7.81665300e-03            nan
       50 -1    0    0    0    0 +9.6811301644e-03 +4.3247457790e-03 +4.0396253050e+00 4.0396423070e+00 4.9935713700e-03 0.0000e+00 0.0000e+00
       11 -1    0    0    0    0 +5.6539588513e-19 +2.5257314241e-19 +2.3592158004e-16 5.1100000000e-04 5.1099893000e-04 0.0000e+00 1.0000e+00
       50  1    1    2    0    0 +5.1053734657e-03 -1.1943981239e-02 +3.7552682438e+00 3.7552940287e+00 4.9935713700e-03 0.0000e+00 0.0000e+00
       11  1    1    2    0    0 +4.5757566987e-03 +1.6268727019e-02 +2.8435706125e-01 2.8485927830e-01 5.1099893000e-04 0.0000e+00 1.0000e+00
<vert_displacement>
269.67490228718191
</vert_displacement>
</event>
<event>
 4   1200 +8.6263000e+09 2.73720100e-02 7.81665300e-03            nan
       50 -1    0    0    0    0 -4.5244875164e-02 -3.7677218220e-02 +3.5155314114e+01 3.5155363774e+01 4.9935713700e-03 0.0000e+00 0.0000e+00
       11 -1    0    0    0    0 +3.4828330471e-18 +2.9002944590e-18 -2.7061648271e-15 5.1100000000e-04 5.1099893000e-04 0.0000e+00 1.0000e+00
       50  1    1    2    0    0 -6.2487223285e-02 -5.6751333296e-02 +3.4431655642e+01 3.4431759475e+01 4.9935713700e-03 0.0000e+00 0.0000e+00
       11  1    1    2    0    0 +1.7242348120e-02 +1.9074115076e-02 +7.2365847224e-01 7.2411529883e-01 5.1099893000e-04 0.0000e+00 1.0000e+00
<vert_displacement>
98.295558266799802
</vert_displacement>
</event>
<event>
 4   1200 +8.6263000e+09 2.87185100e-02 7.81665300e-03            nan
       50 -1    0    0    0    0 -4.5173966792e-03 +2.8946504638e-02 +1.2756594742e+01 1.2756629361e+01 4.9935713700e-03 0.0000e+00 0.0000e+00
       11 -1    0    0    0    0 -8.5756687677e-19 +5.4951037818e-18 +2.4216675860e-15 5.1100000000e-04 5.1099893000e-04 0.0000e+00 1.0000e+00
       50  1    1    2    0    0 -1.9401265164e-02 +5.0906897230e-02 +1.1918785449e+01 1.1918911000e+01 4.9935713700e-03 0.0000e+00 0.0000e+00
       11  1    1    2    0    0 +1.4883868485e-02 -2.1960392593e-02 +8.3780929346e-01 8.3822936105e-01 5.1099893000e-04 0.0000e+00 1.0000e+00
<vert_displacement>
112.30622791982402
</vert_displacement>
</event>
<event>
 4   1200 +8.6263000e+09 7.61829900e-03 7.81665300e-03            nan
       50 -1    0    0    0    0 -1.3663373349e-02 +7.1706818617e-02 +3.1321902886e+01 3.1321988345e+01 4.9935713700e-03 0.0000e+00 0.0000e+00
       11 -1    0    0    0    0 -7.2645732346e-20 +3.8125243448e-19 +1.6653300144e-16 5.1100000000e-04 5.1099893000e-04 0.0000e+00 1.0000e+00
       50  1    1    2    0    0 -8.2813475143e-03 +7.3703473245e-02 +3.1289476316e+01 3.1289564616e+01 4.9935713700e-03 0.0000e+00 0.0000e+00
       11  1    1    2    0    0 -5.3820258351e-03 -1.9966546280e-03 +3.2426570482e-02 3.2934729768e-02 5.1099893000e-04 0.0000e+00 1.0000e+00
<vert_displacement>
201.12607858636102
</vert_displacement>
</event>
<event>
 4   1200 +8.6263000e+09 3.13257600e-02 7.81665300e-03            nan
       50 -1    0    0    0    0 +1.4792322594e-02 +5.8489207682e-03 +6.2089609111e+00 6.2089832947e+00 4.9935713700e-03 0.0000e+00 0.0000e+00
       11 -1    0    0    0    0 -1.4051581005e-18 -5.5560297206e-19 -5.8980404631e-16 5.1100000000e-04 5.1099893000e-04 0.0000e+00 1.0000e+00
       50  1    1    2    0    0 -1.8145910682e-02 -1.8928478578e-03 +5.0595467231e+00 5.0595820812e+00 4.9935713700e-03 0.0000e+00 0.0000e+00
       11  1    1    2    0    0 +3.2938233276e-02 +7.7417686260e-03 +1.1494141880e+00 1.1499122136e+00 5.1099893000e-04 0.0000e+00 1.0000e+00
<vert_displacement>
174.23657136396872
</vert_displacement>
</event>
<event>
 4   1200 +8.6263000e+09 7.27774900e-03 7.81665300e-03            nan
       50 -1    0    0    0    0 +2.1125625568e-02 +1.1577260381e-02 +1.1302981031e+01 1.1303007806e+01 4.9935713700e-03 0.0000e+00 0.0000e+00
       11 -1    0    0    0    0 +1.1542392720e-18 +6.3254593579e-19 +6.1756015485e-16 5.1100000000e-04 5.1099893000e-04 0.0000e+00 1.0000e+00
       50  1    1    2    0    0 +2.1160829027e-02 +6.2554848644e-03 +1.1275491600e+01 1.1275514297e+01 4.9935713700e-03 0.0000e+00 0.0000e+00
       11  1    1    2    0    0 -3.5203459122e-05 +5.3217755168e-03 +2.7489431582e-02 2.8004508611e-02 5.1099893000e-04 0.0000e+00 1.0000e+00
<vert_displacement>
436.46199292351076
</vert_displacement>
</event>
<event>
 4   1200 +8.6263000e+09 7.71515600e-03 7.81665300e-03            nan
       50 -1    0    0    0    0 -4.8909019559e-02 -3.2058996298e-02 +2.5396242061e+01 2.5396309882e+01 4.9935713700e-03 0.0000e+00 0.0000e+00
       11 -1    0    0    0    0 +2.5924496167e-18 +1.6993048197e-18 -1.3461418485e-15 5.1100000000e-04 5.1099893000e-04 0.0000e+00 1.0000e+00
       50  1    1    2    0    0 -4.8484473737e-02 -2.6146060752e-02 +2.5362360986e+01 2.5362421298e+01 4.9935713700e-03 0.0000e+00 0.0000e+00
       11  1    1    2    0    0 -4.2454582125e-04 -5.9129355464e-03 +3.3881074595e-02 3.4399584031e-02 5.1099893000e-04 0.0000e+00 1.0000e+00
<vert_displacement>
116.56883716066694
</vert_displacement>
</event>
<event>
 4   1200 +8.6263000e+09 1.08517800e-02 7.81665300e-03            nan
       50 -1    0    0    0    0 +1.0630765291e-02 +8.6318336686e-03 +5.9109191644e+00 5.9109371360e+00 4.9935713700e-03 0.0000e+00 0.0000e+00
       11 -1    0    0    0    0 -1.1481177168e-18 -9.3223402951e-19 -6.3837652604e-16 5.1100000000e-04 5.1099893000e-04 0.0000e+00 1.0000e+00
       50  1    1    2    0    0 +3.7376094365e-03 +1.5999881684e-03 +5.8186599742e+00 5.8186635373e+00 4.9935713700e-03 0.0000e+00 0.0000e+00
       11  1    1    2    0    0 +6.8931558541e-03 +7.0318455003e-03 +9.2259190244e-02 9.2784598686e-02 5.1099893000e-04 0.0000e+00 1.0000e+00
<vert_displacement>
16.252296818446247
</vert_displacement>
</event>
<event>
 4   1200 +8.6263000e+09 1.62518800e-02 7.81665300e-03            nan
       50 -1    0    0    0    0 -1.1261187689e-03 -1.1852164879e-02 +8.7108029410e+00 8.7108125083e+00 4.9935713700e-03 0.0000e+00 0.0000e+00
       11 -1    0    0    0    0 -1.0226351133e-19 -1.0763021015e-18 +7.9103316621e-16 5.1100000000e-04 5.1099893000e-04 0.0000e+00 1.0000e+00
       50  1    1    2    0    0 -1.1378675574e-02 +2.6717597501e-05 +8.4700939510e+00 8.4701030661e+00 4.9935713700e-03 0.0000e+00 0.0000e+00
       11  1    1    2    0    0 +1.0252556805e-02 -1.1878882477e-02 +2.4070898998e-01 2.4122044223e-01 5.1099893000e-04 0.0000e+00 1.0000e+00
<vert_displacement>
465.50165381730727
</vert_displacement>
</event>
<event>
 4   1200 +8.6263000e+09 1.91830000e-02 7.81665300e-03            nan
       50 -1    0    0    0    0 -2.1791761180e-03 +2.1191916034e-03 +1.7044343579e+00 1.7044443834e+00 4.9935713700e-03 0.0000e+00 0.0000e+00
       11 -1    0    0    0    0 -1.7743185901e-20 +1.7254782790e-20 +1.3877765738e-17 5.1100000000e-04 5.1099893000e-04 0.0000e+00 1.0000e+00
       50  1    1    2    0    0 +9.7747253198e-03 -1.3085350126e-02 +1.2407511884e+00 1.2408687356e+00 4.9935713700e-03 0.0000e+00 0.0000e+00
       11  1    1    2    0    0 -1.1953901438e-02 +1.5204541729e-02 +4.6368316951e-01 4.6408664779e-01 5.1099893000e-04 0.0000e+00 1.0000e+00
<vert_displacement>
285.52482234690598
</vert_displacement>
</event>
<event>
 4   1200 +8.6263000e+09 1.95359000e-02 7.81665300e-03            nan
       50 -1    0    0    0    0 -4.3893300850e-02 -2.1004862281e-02 +1.3722081521e+01 1.3722168707e+01 4.9935713700e-03 0.0000e+00 0.0000e+00
       11 -1    0    0    0    0 +3.2405491957e-18 +1.5507443790e-18 -1.0130721403e-15 5.1100000000e-04 5.1099893000e-04 0.0000e+00 1.0000e+00
       50  1    1    2    0    0 -5.0144286839e-02 -3.7834069714e-02 +1.3363604922e+01 1.3363753489e+01 4.9935713700e-03 0.0000e+00 0.0000e+00
       11  1    1    2    0    0 +6.2509859891e-03 +1.6829207433e-02 +3.5847659865e-01 3.5892621798e-01 5.1099893000e-04 0.0000e+00 1.0000e+00
<vert_displacement>
289.78446532845072
</vert_displacement>
</event>
<event>
 4   1200 +8.6263000e+09 4.35563200e-02 7.81665300e-03            nan
       50 -1    0    0    0    0 -8.6041394420e-03 +6.4824833436e-04 +8.3199984603e+00 8.3200044331e+00 4.9935713700e-03 0.0000e+00 0.0000e+00
       11 -1    0    0    0    0 +7.2476227838e-19 -5.4604640352e-20 -7.0082790741e-16 5.1100000000e-04 5.1099893000e-04 0.0000e+00 1.0000e+00
       50  1    1    2    0    0 +3.7351787161e-02 +3.8840307035e-03 +5.5888493239e+00 5.5889777189e+00 4.9935713700e-03 0.0000e+00 0.0000e+00
       11  1    1    2    0    0 -4.5955926603e-02 -3.2357823692e-03 +2.7311491364e+00 2.7315377142e+00 5.1099893000e-04 0.0000e+00 1.0000e+00
<vert_displacement>
134.75028966393904
</vert_displacement>
</event>
<event>
 4   1200 +8.6263000e+09 1.67256400e-02 7.81665300e-03            nan
       50 -1    0    0    0    0 -4.2020801509e-02 -3.2611840370e-02 +1.4949116546e+01 1.4949212010e+01 4.9935713700e-03 0.0000e+00 0.0000e+00
       11 -1    0    0    0    0 +2.4770799448e-18 +1.9224320537e-18 -8.8123394746e-16 5.1100000000e-04 5.1099893000e-04 0.0000e+00 1.0000e+00
       50  1    1    2    0    0 -2.6981387496e-02 -2.5018524392e-02 +1.4695528416e+01 1.4695575331e+01 4.9935713700e-03 0.0000e+00 0.0000e+00
       11  1    1    2    0    0 -1.5039414013e-02 -7.5933159776e-03 +2.5358812941e-01 2.5414767935e-01 5.1099893000e-04 0.0000e+00 1.0000e+00
<vert_displacement>
130.07598008296881
</vert_displacement>
</event>
<event>
 4   1200 +8.6263000e+09 2.11128200e-02 7.81665300e-03            nan
       50 -1    0    0    0    0 +5.9242682788e-02 -1.7403244292e-02 +2.0276549867e+01 2.0276644496e+01 4.9935713700e-03 0.0000e+00 0.0000e+00
       11 -1    0    0    0    0 +3.8114193974e-18 -1.1196498833e-18 +1.3045060055e-15 5.1100000000e-04 5.1099893000e-04 0.0000e+00 1.0000e+00
       50  1    1    2    0    0 +7.4321737083e-02 -2.9487132912e-02 +1.9855995859e+01 1.9856157476e+01 4.9935713700e-03 0.0000e+00 0.0000e+00
       11  1    1    2    0    0 -1.5079054295e-02 +1.2083888620e-02 +4.2055400806e-01 4.2099802025e-01 5.1099893000e-04 0.0000e+00 1.0000e+00
<vert_displacement>
76.053726143774412
</vert_displacement>
</event>
<event>
 4   1200 +8.6263000e+09 1.05137800e-02 7.81665300e-03            nan
       50 -1    0    0    0    0 -1.9542205751e-02 +1.4822165505e-02 +7.3773934726e+00 7.3774359353e+00 4.9935713700e-03 0.0000e+00 0.0000e+00
       11 -1    0    0    0    0 -0.0000000000e+00 +0.0000000000e+00 +0.0000000000e+00 5.1100000000e-04 5.1099893000e-04 0.0000e+00 1.0000e+00
       50  1    1    2    0    0 -2.6484347595e-02 +2.0503606092e-02 +7.2926197115e+00 7.2926983353e+00 4.9935713700e-03 0.0000e+00 0.0000e+00
       11  1    1    2    0    0 +6.9421418439e-03 -5.6814405867e-03 +8.4773761166e-02 8.5248600004e-02 5.1099893000e-04 0.0000e+00 1.0000e+00
<vert_displacement>
15.958425310365621
</vert_displacement>
</event>
<event>
 4   1200 +8.6263000e+09 5.30581300e-03 7.81665300e-03            nan
       50 -1    0    0    0    0 -1.8661088627e-02 +2.4461481093e-02 +1.2598873559e+01 1.2598912115e+01 4.9935713700e-03 0.0000e+00 0.0000e+00
       11 -1    0    0    0    0 -3.4944041083e-19 +4.5805634245e-19 +2.3592168927e-16 5.1100000000e-04 5.1099893000e-04 0.0000e+00 1.0000e+00
       50  1    1    2    0    0 -2.0127800968e-02 +2.3430210108e-02 +1.2595725796e+01 1.2595764660e+01 4.9935713700e-03 0.0000e+00 0.0000e+00
       11  1    1    2    0    0 +1.4667123417e-03 +1.0312709845e-03 +3.1477628636e-03 3.6584553966e-03 5.1099893000e-04 0.0000e+00 1.0000e+00
<vert_displacement>
19.797151333793821
</vert_displacement>
</event>
<event>
 4   1200 +8.6263000e+09 2.68649400e-02 7.81665300e-03            nan
       50 -1    0    0    0    0 +1.9949149841e-02 -3.1067434372e-02 +1.8519242258e+01 1.8519279735e+01 4.9935713700e-03 0.0000e+00 0.0000e+00
       11 -1    0    0    0    0 +1.2706896278e-18 -1.9788846609e-18 +1.1796096194e-15 5.1100000000e-04 5.1099893000e-04 0.0000e+00 1.0000e+00
       50  1    1    2    0    0 -6.0247921361e-03 -2.2052913855e-02 +1.7810297054e+01 1.7810312426e+01 4.9935713700e-03 0.0000e+00 0.0000e+00
       11  1    1    2    0    0 +2.5973941977e-02 -9.0145205173e-03 +7.0894520343e-01 7.0947830821e-01 5.1099893000e-04 0.0000e+00 1.0000e+00
<vert_displacement>
463.18205852837741
</vert_displacement>
</event>
<event>
 4   1200 +8.6263000e+09 3.56846100e-02 7.81665300e-03            nan
       50 -1    0    0    0    0 -2.8876322661e-03 -7.7337408350e-03 +1.0167823562e+01 1.0167828139e+01 4.9935713700e-03 0.0000e+00 0.0000e+00
       11 -1    0    0    0    0 -4.5324375040e-20 -1.2138906127e-19 +1.5959450719e-16 5.1100000000e-04 5.1099893000e-04 0.0000e+00 1.0000e+00
       50  1    1    2    0    0 -9.7931318691e-03 -4.1222489002e-02 +8.7472057266e+00 8.7473097669e+00 4.9935713700e-03 0.0000e+00 0.0000e+00
       11  1    1    2    0    0 +6.9054996030e-03 +3.3488748167e-02 +1.4206178351e+00 1.4210293722e+00 5.1099893000e-04 0.0000e+00 1.0000e+00
<vert_displacement>
402.97604967946023
</vert_displacement>
</event>
<event>
 4   1200 +8.6263000e+09 8.79563200e-03 7.81665300e-03            nan
       50 -1    0    0    0    0 +1.2553618012e-02 +8.4303317740e-03 +7.0111262365e+00 7.0111443220e+00 4.9935713700e-03 0.0000e+00 0.0000e+00
       11 -1    0    0    0    0 +5.8393998963e-19 +3.9214255556e-19 +3.2612725494e-16 5.1100000000e-04 5.1099893000e-04 0.0000e+00 1.0000e+00
       50  1    1    2    0    0 +1.9589169247e-02 +9.6399775798e-03 +6.9594271751e+00 6.9594632124e+00 4.9935713700e-03 0.0000e+00 0.0000e+00
       11  1    1    2    0    0 -7.0355512350e-03 -1.2096458058e-03 +5.1699061439e-02 5.2192109535e-02 5.1099893000e-04 0.0000e+00 1.0000e+00
<vert_displacement>
33.042403422764664
</vert_displacement>
</event>
<event>
 4   1200 +8.6263000e+09 8.44826700e-03 7.81665300e-03            nan
       50 -1    0    0    0    0 -7.5716567942e-03 -8.3832398977e-03 +5.7341814838e+00 5.7341947852e+00 4.9935713700e-03 0.0000e+00 0.0000e+00
       11 -1    0    0    0    0 +9.5288881638e-19 +1.0550261007e-18 -7.2164356568e-16 5.1100000000e-04 5.1099893000e-04 0.0000e+00 1.0000e+00
       50  1    1    2    0    0 -1.8752874636e-03 -1.2146973590e-02 +5.6883740149e+00 5.6883894852e+00 4.9935713700e-03 0.0000e+00 0.0000e+00
       11  1    1    2    0    0 -5.6963693306e-03 +3.7637336919e-03 +4.5807468906e-02 4.6316299964e-02 5.1099893000e-04 0.0000e+00 1.0000e+00
<vert_displacement>
426.51283057880488
</vert_displacement>
</event>
<event>
 4   1200 +8.6263000e+09 2.87529700e-02 7.81665300e-03            nan
       50 -1    0    0    0    0 -1.4286936545e-03 -5.0683520261e-03 +1.0678339618e+01 1.0678342084e+01 4.9935713700e-03 0.0000e+00 0.0000e+00
       11 -1    0    0    0    0 +3.8991942497e-20 +1.3832558864e-19 -2.9143350853e-16 5.1100000000e-04 5.1099893000e-04 0.0000e+00 1.0000e+00
       50  1    1    2    0    0 -1.8914393540e-02 +1.7518515355e-02 +9.8255047341e+00 9.8255398258e+00 4.9935713700e-03 0.0000e+00 0.0000e+00
       11  1    1    2    0    0 +1.7485699886e-02 -2.2586867381e-02 +8.5283488398e-01 8.5331325826e-01 5.1099893000e-04 0.0000e+00 1.0000e+00
<vert_displacement>
235.79329139050614
</vert_displacement>
</event>
<event>
 4   1200 +8.6263000e+09 1.64599800e-02 7.81665300e-03            nan
       50 -1    0    0    0    0 +4.6696473511e-02 -2.5204518783e-02 +1.4023055481e+01 1.4023156769e+01 4.9935713700e-03 0.0000e+00 0.0000e+00
       11 -1    0    0    0    0 +9.2424808837e-19 -4.9886482966e-19 +2.7755376898e-16 5.1100000000e-04 5.1099893000e-04 0.0000e+00 1.0000e+00
       50  1    1    2    0    0 +3.3607873740e-02 -3.4530123177e-02 +1.3778084246e+01 1.3778169408e+01 4.9935713700e-03 0.0000e+00 0.0000e+00
       11  1    1    2    0    0 +1.3088599772e-02 +9.3256043937e-03 +2.4497123448e-01 2.4549836086e-01 5.1099893000e-04 0.0000e+00 1.0000e+00
<vert_displacement>
349.36928542548270
</vert_displacement>
</event>
<event>
 4   1200 +8.6263000e+09 1.94024800e-02 7.81665300e-03            nan
       50 -1    0    0    0    0 +3.4760793869e-03 +1.3859004186e-03 +1.4019958369e+00 1.4020097240e+00 4.9935713700e-03 0.0000e+00 0.0000e+00
       11 -1    0    0    0    0 -6.0214308981e-20 -2.4007229621e-20 -2.4286042151e-17 5.1100000000e-04 5.1099893000e-04 0.0000e+00 1.0000e+00
       50  1    1    2    0    0 -6.7949855412e-05 +1.9382688865e-02 +7.3877661665e-01 7.3904771044e-01 4.9935713700e-03 0.0000e+00 0.0000e+00
       11  1    1    2    0    0 +3.5440292423e-03 -1.7996788446e-02 +6.6321922021e-01 6.6347301356e-01 5.1099893000e-04 0.0000e+00 1.0000e+00
<vert_displacement>
302.31485173834164
</vert_displacement>
</event>
<event>
 4   1200 +8.6263000e+09 7.65026100e-03 7.81665300e-03            nan
       50 -1    0    0    0    0 -7.8397122817e-02 +8.3440084360e-02 +3.6424725041e+01 3.6424905320e+01 4.9935713700e-03 0.0000e+00 0.0000e+00
       11 -1    0    0    0    0 +7.6464861276e-18 -8.1383528454e-18 -3.5526961286e-15 5.1100000000e-04 5.1099893000e-04 0.0000e+00 1.0000e+00
       50  1    1    2    0    0 -7.2533087733e-02 +8.3194247384e-02 +3.6391840225e+01 3.6392007945e+01 4.9935713700e-03 0.0000e+00 0.0000e+00
       11  1    1    2    0    0 -5.8640350845e-03 +2.4583697647e-04 +3.2884815069e-02 3.3408375078e-02 5.1099893000e-04 0.0000e+00 1.0000e+00
<vert_displacement>
466.22616888096087
</vert_displacement>
</event>
<event>
 4   1200 +8.6263000e+09 6.56428500e-03 7.81665300e-03            nan
       50 -1    0    0    0    0 -2.1936047437e-02 -6.2866180533e-03 +1.0739407394e+01 1.0739432798e+01 4.9935713700e-03 0.0000e+00 0.0000e+00
       11 -1    0    0    0    0 -1.9842453062e-18 -5.6866180653e-19 +9.7144295362e-16 5.1100000000e-04 5.1099893000e-04 0.0000e+00 1.0000e+00
       50  1    1    2    0    0 -2.4012411918e-02 -2.5761303103e-03 +1.0721611607e+01 1.0721639969e+01 4.9935713700e-03 0.0000e+00 0.0000e+00
       11  1    1    2    0    0 +2.0763644807e-03 -3.7104877430e-03 +1.7795787002e-02 1.8303829208e-02 5.1099893000e-04 0.0000e+00 1.0000e+00
<vert_displacement>
6.5594077100962966
</vert_displacement>
</event>
<event>
 4   1200 +8.6263000e+09 1.96809700e-02 7.81665300e-03            nan
       50 -1    0    0    0    0 +2.1330391930e-02 +2.8545829430e-02 +1.4395157895e+01 1.4395202867e+01 4.9935713700e-03 0.0000e+00 0.0000e+00
       11 -1    0    0    0    0 -7.9170255073e-19 -1.0595119887e-18 -5.3429319353e-16 5.1100000000e-04 5.1099893000e-04 0.0000e+00 1.0000e+00
       50  1    1    2    0    0 +1.8219273987e-03 +2.6222001817e-02 +1.4031363121e+01 1.4031388629e+01 4.9935713700e-03 0.0000e+00 0.0000e+00
       11  1    1    2    0    0 +1.9508464531e-02 +2.3238276129e-03 +3.6379477396e-01 3.6432523800e-01 5.1099893000e-04 0.0000e+00 1.0000e+00
<vert_displacement>
492.02399209830020
</vert_displacement>
</event>
<event>
 4   1200 +8.6263000e+09 2.25623500e-02 7.81665300e-03            nan
       50 -1    0    0    0    0 +4.9636174124e-03 +8.3787242526e-02 +3.6934313165e+01 3.6934408874e+01 4.9935713700e-03 0.0000e+00 0.0000e+00
       11 -1    0    0    0    0 +1.9769389535e-19 +3.3371279411e-18 +1.4710417091e-15 5.1100000000e-04 5.1099893000e-04 0.0000e+00 1.0000e+00
       50  1    1    2    0    0 -4.0726194722e-03 +6.2607925511e-02 +3.6454411536e+01 3.6454465867e+01 4.9935713700e-03 0.0000e+00 0.0000e+00
       11  1    1    2    0    0 +9.0362368846e-03 +2.1179317016e-02 +4.7990162964e-01 4.8045400643e-01 5.1099893000e-04 0.0000e+00 1.0000e+00
<vert_displacement>
200.96358395117051
</vert_displacement>
</event>
<event>
 4   1200 +8.6263000e+09 8.15761700e-03 7.81665300e-03            nan
       50 -1    0    0    0    0 +2.3699445112e-02 +2.6443368329e-02 +1.0932054828e+01 1.0932113639e+01 4.9935713700e-03 0.0000e+00 0.0000e+00
       11 -1    0    0    0    0 +2.3165680033e-18 +2.5847803897e-18 +1.0685840240e-15 5.1100000000e-04 5.1099893000e-04 0.0000e+00 1.0000e+00
       50  1    1    2    0    0 +3.0047332867e-02 +2.6771521782e-02 +1.0891169793e+01 1.0891245289e+01 4.9935713700e-03 0.0000e+00 0.0000e+00
       11  1    1    2    0    0 -6.3478877542e-03 -3.2815345224e-04 +4.0885035379e-02 4.1379349940e-02 5.1099893000e-04 0.0000e+00 1.0000e+00
<vert_displacement>
434.75636709940704
</vert_displacement>
</event>
<event>
 4   1200 +8.6263000e+09 3.08307100e-02 7.81665300e-03            nan
       50 -1    0    0    0    0 +1.2568795352e-02 +1.9595794694e-02 +1.1248991076e+01 1.1249016274e+01 4.9935713700e-03 0.0000e+00 0.0000e+00
       11 -1    0    0    0    0 +5.8922747889e-19 +9.1865452346e-19 +5.2735480737e-16 5.1100000000e-04 5.1099893000e-04 0.0000e+00 1.0000e+00
       50  1    1    2    0    0 -1.8114755291e-02 +1.0722289358e-02 +1.0255360515e+01 1.0255383335e+01 4.9935713700e-03 0.0000e+00 0.0000e+00
       11  1    1    2    0    0 +3.0683550642e-02 +8.8735053353e-03 +9.9363056020e-01 9.9414393861e-01 5.1099893000e-04 0.0000e+00 1.0000e+00
<vert_displacement>
189.62531166740973
</vert_displacement>
</event>
<event>
 4   1200 +8.6263000e+09 7.52577300e-03 7.81665300e-03            nan
       50 -1    0    0    0    0 +4.2921274153e-02 +2.9460580287e-02 +2.6250943338e+01 2.6250995433e+01 4.9935713700e-03 0.0000e+00 0.0000e+00
       11 -1    0    0    0    0 +3.4035986222e-19 +2.3361839193e-19 +2.0816640778e-16 5.1100000000e-04 5.1099893000e-04 0.0000e+00 1.0000e+00
       50  1    1    2    0    0 +3.9629645483e-02 +3.4029898545e-02 +2.6219887063e+01 2.6219939571e+01 4.9935713700e-03 0.0000e+00 0.0000e+00
       11  1    1    2    0    0 +3.2916286705e-03 -4.5693182585e-03 +3.1056274938e-02 3.1566862714e-02 5.1099893000e-04 0.0000e+00 1.0000e+00
<vert_displacement>
413.05959982883650
</vert_displacement>
</event>
<event>
 4   1200 +8.6263000e+09 5.62425300e-03 7.81665300e-03            nan
       50 -1    0    0    0    0 +1.7964398985e-02 +1.6843645610e-03 +9.6971844382e+00 9.6972025101e+00 4.9935713700e-03 0.0000e+00 0.0000e+00
       11 -1    0    0    0    0 +1.4397084521e-18 +1.3498886864e-19 +7.7715477196e-16 5.1100000000e-04 5.1099893000e-04 0.0000e+00 1.0000e+00
       50  1    1    2    0    0 +2.0002127477e-02 +1.0383829006e-04 +9.6906238201e+00 9.6906457501e+00 4.9935713700e-03 0.0000e+00 0.0000e+00
       11  1    1    2    0    0 -2.0377284921e-03 +1.5805262709e-03 +6.5606181280e-03 7.0677599584e-03 5.1099893000e-04 0.0000e+00 1.0000e+00
<vert_displacement>
284.18476898958681
</vert_displacement>
</event>
<event>
 4   1200 +8.6263000e+09 3.78091600e-02 7.81665300e-03            nan
       50 -1    0    0    0    0 -2.8579600730e-02 -2.1305495775e-02 +9.0304947792e+00 9.0305665166e+00 4.9935713700e-03 0.0000e+00 0.0000e+00
       11 -1    0    0    0    0 -8.7839825878e-19 -6.5482756626e-19 +2.7755359373e-16 5.1100000000e-04 5.1099893000e-04 0.0000e+00 1.0000e+00
       50  1    1    2    0    0 -4.6975076500e-02 +1.1678027217e-02 +7.3380113138e+00 7.3381726616e+00 4.9935713700e-03 0.0000e+00 0.0000e+00
       11  1    1    2    0    0 +1.8395475770e-02 -3.2983522991e-02 +1.6924834654e+00 1.6929048550e+00 5.1099893000e-04 0.0000e+00 1.0000e+00
<vert_displacement>
93.321722634956075
</vert_displacement>
</event>
<event>
 4   1200 +8.6263000e+09 8.13336100e-03 7.81665300e-03            nan
       50 -1    0    0    0    0 -2.1334255098e-02 -1.6494181857e-02 +9.4224725149e+00 9.4225124271e+00 4.9935713700e-03 0.0000e+00 0.0000e+00
       11 -1    0    0    0    0 -1.0840521215e-18 -8.3811470110e-19 +4.7878171856e-16 5.1100000000e-04 5.1099893000e-04 0.0000e+00 1.0000e+00
       50  1    1    2    0    0 -1.9001554688e-02 -1.0407171450e-02 +9.3819829524e+00 9.3820092956e+00 4.9935713700e-03 0.0000e+00 0.0000e+00
       11  1    1    2    0    0 -2.3327004103e-03 -6.0870104065e-03 +4.0489562531e-02 4.1014131476e-02 5.1099893000e-04 0.0000e+00 1.0000e+00
<vert_displacement>
427.04274307891831
</vert_displacement>
</event>
<event>
 4   1200 +8.6263000e+09 9.95821400e-03 7.81665300e-03            nan
       50 -1    0    0    0    0 -3.4002174349e-02 -9.1737393434e-03 +1.1455621036e+01 1.1455676259e+01 4.9935713700e-03 0.0000e+00 0.0000e+00
       11 -1    0    0    0    0 +2.9451829929e-18 +7.9460627482e-19 -9.9225713921e-16 5.1100000000e-04 5.1099893000e-04 0.0000e+00 1.0000e+00
       50  1    1    2    0    0 -4.0553661735e-02 -3.7843585474e-03 +1.1382502478e+01 1.1382576445e+01 4.9935713700e-03 0.0000e+00 0.0000e+00
       11  1    1    2    0    0 +6.5514873859e-03 -5.3893807960e-03 +7.3118557105e-02 7.3610813916e-02 5.1099893000e-04 0.0000e+00 1.0000e+00
<vert_displacement>
404.05974000259476
</vert_displacement>
</event>
<event>
 4   1200 +8.6263000e+09 2.59799700e-02 7.81665300e-03            nan
       50 -1    0    0    0    0 +7.9229796440e-04 +1.4694908351e-02 +1.7976989375e+01 1.7976996093e+01 4.9935713700e-03 0.0000e+00 0.0000e+00
       11 -1    0    0    0    0 -1.6514120143e-20 -3.0629067963e-19 -3.7470014526e-16 5.1100000000e-04 5.1099893000e-04 0.0000e+00 1.0000e+00
       50  1    1    2    0    0 +8.2109018519e-03 +3.8538612028e-02 +1.7316632708e+01 1.7316678258e+01 4.9935713700e-03 0.0000e+00 0.0000e+00
       11  1    1    2    0    0 -7.4186038875e-03 -2.3843703677e-02 +6.6035666793e-01 6.6082883403e-01 5.1099893000e-04 0.0000e+00 1.0000e+00
<vert_displacement>
48.270584425438564
</vert_displacement>
</event>
<event>
 4   1200 +8.6263000e+09 8.36529700e-03 7.81665300e-03            nan
       50 -1    0    0    0    0 +1.4863308628e-04 +2.2385943571e-02 +1.2147263574e+01 1.2147285228e+01 4.9935713700e-03 0.0000e+00 0.0000e+00
       11 -1    0    0    0    0 -1.0782768254e-20 -1.6240155387e-18 -8.8123802930e-16 5.1100000000e-04 5.1099893000e-04 0.0000e+00 1.0000e+00
       50  1    1    2    0    0 -6.5573882528e-03 +2.2585439518e-02 +1.2103027112e+01 1.2103050992e+01 4.9935713700e-03 0.0000e+00 0.0000e+00
       11  1    1    2    0    0 +6.7060213391e-03 -1.9949594693e-04 +4.4236461502e-02 4.4745236249e-02 5.1099893000e-04 0.0000e+00 1.0000e+00
<vert_displacement>
46.044796666182144
</vert_displacement>
</event>
<event>
 4   1200 +8.6263000e+09 3.04278500e-02 7.81665300e-03            nan
       50 -1    0    0    0    0 +9.2544261002e-03 -9.4083811768e-04 +4.1268559673e+00 4.1268694721e+00 4.9935713700e-03 0.0000e+00 0.0000e+00
       11 -1    0    0    0    0 -7.4689673568e-19 +7.5932198420e-20 -3.3306606128e-16 5.1100000000e-04 5.1099893000e-04 0.0000e+00 1.0000e+00
       50  1    1    2    0    0 +1.0171032911e-02 -3.0423149424e-02 +2.8442724019e+00 2.8444576724e+00 4.9935713700e-03 0.0000e+00 0.0000e+00
       11  1    1    2    0    0 -9.1660681115e-04 +2.9482311306e-02 +1.2825835654e+00 1.2829227998e+00 5.1099893000e-04 0.0000e+00 1.0000e+00
<vert_displacement>
2.5656700584471732
</vert_displacement>
</event>
<event>
 4   1200 +8.6263000e+09 2.34007500e-02 7.81665300e-03            nan
       50 -1    0    0    0    0 +1.8148042571e-02 +1.1073852110e-02 +7.3354272460e+00 7.3354597537e+00 4.9935713700e-03 0.0000e+00 0.0000e+00
       11 -1    0    0    0    0 -1.0471831211e-18 -6.3898632428e-19 -4.2327075044e-16 5.1100000000e-04 5.1099893000e-04 0.0000e+00 1.0000e+00
       50  1    1    2    0    0 +3.6837808129e-02 +2.1206874440e-02 +6.7820444982e+00 6.7821795366e+00 4.9935713700e-03 0.0000e+00 0.0000e+00
       11  1    1    2    0    0 -1.8689765558e-02 -1.0133022330e-02 +5.5338274776e-01 5.5379121708e-01 5.1099893000e-04 0.0000e+00 1.0000e+00
<vert_displacement>
20.512380173835989
</vert_displacement>
</event>
<event>
 4   1200 +8.6263000e+09 1.22728100e-02 7.81665300e-03            nan
       50 -1    0    0    0    0 +4.2412851073e-02 -5.0546712342e-03 +1.3715499820e+01 1.3715567238e+01 4.9935713700e-03 0.0000e+00 0.0000e+00
       11 -1    0    0    0    0 +2.1671817946e-18 -2.5828000710e-19 +7.0082488589e-16 5.1100000000e-04 5.1099893000e-04 0.0000e+00 1.0000e+00
       50  1    1    2    0    0 +5.3012344667e-02 -7.2566850131e-03 +1.3591355513e+01 1.3591461753e+01 4.9935713700e-03 0.0000e+00 0.0000e+00
       11  1    1    2    0    0 -1.0599493594e-02 +2.2020137789e-03 +1.2414430740e-01 1.2461648490e-01 5.1099893000e-04 0.0000e+00 1.0000e+00
<vert_displacement>
448.19509761597482
</vert_displacement>
</event>
<event>
 4   1200 +8.6263000e+09 9.06109200e-03 7.81665300e-03            nan
       50 -1    0    0    0    0 -1.0849853145e-02 +1.6413763351e-02 +6.3526966479e+00 6.3527290803e+00 4.9935713700e-03 0.0000e+00 0.0000e+00
       11 -1    0    0    0    0 -8.2956791494e-20 +1.2549784092e-19 +4.8572024359e-17 5.1100000000e-04 5.1099893000e-04 0.0000e+00 1.0000e+00
       50  1    1    2    0    0 -3.2203185501e-03 +1.5620358515e-02 +6.2962664978e+00 6.2962886778e+00 4.9935713700e-03 0.0000e+00 0.0000e+00
       11  1    1    2    0    0 -7.6295345948e-03 +7.9340483672e-04 +5.6430150072e-02 5.6951402498e-02 5.1099893000e-04 0.0000e+00 1.0000e+00
<vert_displacement>
149.23974926283253
</vert_displacement>
</event>
<event>
 4   1200 +8.6263000e+09 6.32722200e-03 7.81665300e-03            nan
       50 -1    0    0    0    0 +3.9701611587e-02 +1.1664358755e-02 +1.5710846405e+01 1.5710901692e+01 4.9935713700e-03 0.0000e+00 0.0000e+00
       11 -1    0    0    0    0 -5.6461598041e-18 -1.6588453443e-18 -2.2343160873e-15 5.1100000000e-04 5.1099893000e-04 0.0000e+00 1.0000e+00
       50  1    1    2    0    0 +4.1157445545e-02 +1.5240620217e-02 +1.5696052620e+01 1.5696114774e+01 4.9935713700e-03 0.0000e+00 0.0000e+00
       11  1    1    2    0    0 -1.4558339572e-03 -3.5762614618e-03 +1.4793784914e-02 1.5297917850e-02 5.1099893000e-04 0.0000e+00 1.0000e+00
<vert_displacement>
231.37588585539228
</vert_displacement>
</event>
<event>
 4   1200 +8.6263000e+09 7.93703400e-03 7.81665300e-03            nan
       50 -1    0    0    0    0 -1.9967064512e-02 +1.5260463432e-02 +9.3183854975e+00 9.3184207236e+00 4.9935713700e-03 0.0000e+00 0.0000e+00
       11 -1    0    0    0    0 -1.9774880001e-18 +1.5113580314e-18 +9.2286953303e-16 5.1100000000e-04 5.1099893000e-04 0.0000e+00 1.0000e+00
       50  1    1    2    0    0 -2.3784032606e-02 +1.9981812588e-02 +9.2809755175e+00 9.2810288463e+00 4.9935713700e-03 0.0000e+00 0.0000e+00
       11  1    1    2    0    0 +3.8169680939e-03 -4.7213491561e-03 +3.7409980029e-02 3.7902877318e-02 5.1099893000e-04 0.0000e+00 1.0000e+00
<vert_displacement>
152.78803241861954
</vert_displacement>
</event>
<event>
 4   1200 +8.6263000e+09 2.95767600e-02 7.81665300e-03            nan
       50 -1    0    0    0    0 -1.3748989471e-02 -6.8342548074e-03 +6.5949483940e+00 6.5949681574e+00 4.9935713700e-03 0.0000e+00 0.0000e+00
       11 -1    0    0    0    0 +1.7359199493e-19 +8.6287936165e-20 -8.3266501187e-17 5.1100000000e-04 5.1099893000e-04 0.0000e+00 1.0000e+00
       50  1    1    2    0    0 -2.4757895589e-02 -3.1892336014e-02 +5.6180604802e+00 5.6182077720e+00 4.9935713700e-03 0.0000e+00 0.0000e+00
       11  1    1    2    0    0 +1.1008906118e-02 +2.5058081206e-02 +9.7688791387e-01 9.7727138546e-01 5.1099893000e-04 0.0000e+00 1.0000e+00
<vert_displacement>
1.8107005339143030
</vert_displacement>
</event>
<event>
 4   1200 +8.6263000e+09 1.16825600e-02 7.81665300e-03            nan
       50 -1    0    0    0    0 -1.6017779834e-03 -1.9716311280e-03 +8.6868862056e-01 8.6870668714e-01 4.9935713700e-03 0.0000e+00 0.0000e+00
       11 -1    0    0    0    0 +1.0235676811e-19 +1.2599111254e-19 -5.5510913885e-17 5.1100000000e-04 5.1099893000e-04 0.0000e+00 1.0000e+00
       50  1    1    2    0    0 -1.0340171456e-02 -7.2448952887e-03 +7.3980418767e-01 7.3992876651e-01 4.9935713700e-03 0.0000e+00 0.0000e+00
       11  1    1    2    0    0 +8.7383934725e-03 +5.2732641608e-03 +1.2888443289e-01 1.2928892063e-01 5.1099893000e-04 0.0000e+00 1.0000e+00
<vert_displacement>
144.77644177200159
</vert_displacement>
</event>
<event>
 4   1200 +8.6263000e+09 2.05781800e-02 7.81665300e-03            nan
       50 -1    0    0    0    0 +3.0905068370e-02 -3.6326741979e-02 +1.7141854061e+01 1.7141921139e+01 4.9935713700e-03 0.0000e+00 0.0000e+00
       11 -1    0    0    0    0 +1.3510898673e-18 -1.5881114519e-18 +7.4939764094e-16 5.1100000000e-04 5.1099893000e-04 0.0000e+00 1.0000e+00
       50  1    1    2    0    0 +1.0290529758e-02 -3.7131586190e-02 +1.6742616575e+01 1.6742661657e+01 4.9935713700e-03 0.0000e+00 0.0000e+00
       11  1    1    2    0    0 +2.0614538612e-02 +8.0484421098e-04 +3.9923748639e-01 3.9977048245e-01 5.1099893000e-04 0.0000e+00 1.0000e+00
<vert_displacement>
437.50971028222909
</vert_displacement>
</event>
<event>
 4   1200 +8.6263000e+09 2.26060300e-02 7.81665300e-03            nan
       50 -1    0    0    0    0 +3.2579069364e-02 +1.3228810531e-02 +1.2368276766e+01 1.2368327757e+01 4.9935713700e-03 0.0000e+00 0.0000e+00
       11 -1    0    0    0    0 +1.0966529769e-19 +4.4529861452e-20 +4.1633195176e-17 5.1100000000e-04 5.1099893000e-04 0.0000e+00 1.0000e+00
       50  1    1    2    0    0 +3.2548322949e-02 -9.3119363030e-03 +1.1872753115e+01 1.1872802431e+01 4.9935713700e-03 0.0000e+00 0.0000e+00
       11  1    1    2    0    0 +3.0746415310e-05 +2.2540746834e-02 +4.9552365091e-01 4.9603632522e-01 5.1099893000e-04 0.0000e+00 1.0000e+00
<vert_displacement>
495.37903585919958
</vert_displacement>
</event>
<event>
 4   1200 +8.6263000e+09 1.04704800e-02 7.81665300e-03            nan
       50 -1    0    0    0    0 +2.0494821153e-03 +1.3795028250e-02 +5.8378424240e+00 5.8378612185e+00 4.9935713700e-03 0.0000e+00 0.0000e+00
       11 -1    0    0    0    0 -2.0949768278e-19 -1.4101252364e-18 -5.9674317288e-16 5.1100000000e-04 5.1099893000e-04 0.0000e+00 1.0000e+00
       50  1    1    2    0    0 -2.9941249635e-03 +5.8791952102e-03 +5.7537668743e+00 5.7537728239e+00 4.9935713700e-03 0.0000e+00 0.0000e+00
       11  1    1    2    0    0 +5.0436070788e-03 +7.9158330400e-03 +8.4075549657e-02 8.4599394532e-02 5.1099893000e-04 0.0000e+00 1.0000e+00
<vert_displacement>
369.77077739393616
</vert_displacement>
</event>
<event>
 4   1200 +8.6263000e+09 1.33943600e-02 7.81665300e-03            nan
       50 -1    0    0    0    0 +5.3344266010e-04 -9.5482518560e-03 +9.7646467391e+00 9.7646526988e+00 4.9935713700e-03 0.0000e+00 0.0000e+00
       11 -1    0    0    0    0 +3.7907159839e-20 -6.7851174336e-19 +6.9388905762e-16 5.1100000000e-04 5.1099893000e-04 0.0000e+00 1.0000e+00
       50  1    1    2    0    0 +1.1597639433e-02 -1.5043515343e-02 +9.6110634211e+00 9.6110834890e+00 4.9935713700e-03 0.0000e+00 0.0000e+00
       11  1    1    2    0    0 -1.1064196773e-02 +5.4952634870e-03 +1.5358331797e-01 1.5408020979e-01 5.1099893000e-04 0.0000e+00 1.0000e+00
<vert_displacement>
322.99709909084913
</vert_displacement>
</event>
<event>
 4   1200 +8.6263000e+09 5.22530800e-03 7.81665300e-03            nan
       50 -1    0    0    0    0 +1.6368942785e-02 -4.7576334500e-03 +5.2890682381e+00 5.2890980649e+00 4.9935713700e-03 0.0000e+00 0.0000e+00
       11 -1    0    0    0    0 -1.5461867544e-18 +4.4939920185e-19 -4.9959776635e-16 5.1100000000e-04 5.1099893000e-04 0.0000e+00 1.0000e+00
       50  1    1    2    0    0 +1.7896144939e-02 -4.8727987393e-03 +5.2867450433e+00 5.2867799373e+00 4.9935713700e-03 0.0000e+00 0.0000e+00
       11  1    1    2    0    0 -1.5272021543e-03 +1.1516528924e-04 +2.3231947788e-03 2.8291276660e-03 5.1099893000e-04 0.0000e+00 1.0000e+00
<vert_displacement>
357.88659359550121
</vert_displacement>
</event>
<event>
 4   1200 +8.6263000e+09 8.08962900e-03 7.81665300e-03            nan
       50 -1    0    0    0    0 -9.7231183651e-04 -2.7837704864e-03 +1.8382623470e+00 1.8382714943e+00 4.9935713700e-03 0.0000e+00 0.0000e+00
       11 -1    0    0    0    0 -1.3212660327e-19 -3.7828413154e-19 +2.4979985917e-16 5.1100000000e-04 5.1099893000e-04 0.0000e+00 1.0000e+00
       50  1    1    2    0    0 +1.4851352200e-03 +3.1574473076e-03 +1.7977207366e+00 1.7977310582e+00 4.9935713700e-03 0.0000e+00 0.0000e+00
       11  1    1    2    0    0 -2.4574470565e-03 -5.9412177941e-03 +4.0541610388e-02 4.1051436122e-02 5.1099893000e-04 0.0000e+00 1.0000e+00
<vert_displacement>
289.63808724587375
</vert_displacement>
</event>
<event>
 4   1200 +8.6263000e+09 1.06113100e-02 7.81665300e-03            nan
       50 -1    0    0    0    0 -8.7419364556e-03 +3.0165971044e-03 +7.1835495569e+00 7.1835572451e+00 4.9935713700e-03 0.0000e+00 0.0000e+00
       11 -1    0    0    0    0 -3.3776794514e-19 +1.1655424521e-19 +2.7755552616e-16 5.1100000000e-04 5.1099893000e-04 0.0000e+00 1.0000e+00
       50  1    1    2    0    0 -1.7976170856e-02 +3.6359470435e-03 +7.0967016100e+00 7.0967270653e+00 4.9935713700e-03 0.0000e+00 0.0000e+00
       11  1    1    2    0    0 +9.2342344006e-03 -6.1934993911e-04 +8.6847946901e-02 8.7341179750e-02 5.1099893000e-04 0.0000e+00 1.0000e+00
<vert_displacement>
393.76953090953293
</vert_displacement>
</event>
<event>
 4   1200 +8.6263000e+09 1.60625000e-02 7.81665300e-03            nan
       50 -1    0    0    0    0 +6.2000580825e-03 +1.0080374031e-02 +4.9290227156e+00 4.9290394522e+00 4.9935713700e-03 0.0000e+00 0.0000e+00
       11 -1    0    0    0    0 -8.8154666654e-19 -1.4332640125e-18 -7.0082626427e-16 5.1100000000e-04 5.1099893000e-04 0.0000e+00 1.0000e+00
       50  1    1    2    0    0 -7.9313188590e-03 +1.6055741858e-02 +4.6892294850e+00 4.6892663383e+00 4.9935713700e-03 0.0000e+00 0.0000e+00
       11  1    1    2    0    0 +1.4131376941e-02 -5.9753678264e-03 +2.3979323053e-01 2.4028411384e-01 5.1099893000e-04 0.0000e+00 1.0000e+00
<vert_displacement>
494.63450427615913
</vert_displacement>
</event>
<event>
 4   1200 +8.6263000e+09 2.55948700e-02 7.81665300e-03            nan
       50 -1    0    0    0    0 -1.2042893922e-02 +5.0642246443e-03 +7.6451752352e+00 7.6451880284e+00 4.9935713700e-03 0.0000e+00 0.0000e+00
       11 -1    0    0    0    0 -2.1860647701e-20 +9.1927431679e-21 +1.3877767545e-17 5.1100000000e-04 5.1099893000e-04 0.0000e+00 1.0000e+00
       50  1    1    2    0    0 +1.3209054656e-02 +1.1339080579e-02 +6.9684808436e+00 6.9685043773e+00 4.9935713700e-03 0.0000e+00 0.0000e+00
       11  1    1    2    0    0 -2.5251948578e-02 -6.2748559345e-03 +6.7669439163e-01 6.7719465112e-01 5.1099893000e-04 0.0000e+00 1.0000e+00
<vert_displacement>
264.00580805662059
</vert_displacement>
</event>
<event>
 4   1200 +8.6263000e+09 3.87511000e-02 7.81665300e-03            nan
       50 -1    0    0    0    0 +1.2921159350e-02 -1.1712318914e-02 +7.3837387723e+00 7.3837610557e+00 4.9935713700e-03 0.0000e+00 0.0000e+00
       11 -1    0    0    0    0 -1.4571204079e-19 +1.3207993534e-19 -8.3266494598e-17 5.1100000000e-04 5.1099893000e-04 0.0000e+00 1.0000e+00
       50  1    1    2    0    0 +4.5628227985e-02 +4.4177437721e-03 +5.4086532156e+00 5.4088497848e+00 4.9935713700e-03 0.0000e+00 0.0000e+00
       11  1    1    2    0    0 -3.2707068635e-02 -1.6130062686e-02 +1.9750855567e+00 1.9754222710e+00 5.1099893000e-04 0.0000e+00 1.0000e+00
<vert_displacement>
378.28011522901477
</vert_displacement>
</event>
<event>
 4   1200 +8.6263000e+09 6.39925200e-03 7.81665300e-03            nan
       50 -1    0    0    0    0 +1.3254649775e-02 -2.8810304539e-02 +1.3555758859e+01 1.3555796874e+01 4.9935713700e-03 0.0000e+00 0.0000e+00
       11 -1    0    0    0    0 -4.3422363136e-19 +9.4382841267e-19 -4.4408799459e-16 5.1100000000e-04 5.1099893000e-04 0.0000e+00 1.0000e+00
       50  1    1    2    0    0 +1.2558605365e-02 -3.2720469101e-02 +1.3540062472e+01 1.3540108752e+01 4.9935713700e-03 0.0000e+00 0.0000e+00
       11  1    1    2    0    0 +6.9604441001e-04 +3.9101645612e-03 +1.5696387398e-02 1.6199122259e-02 5.1099893000e-04 0.0000e+00 1.0000e+00
<vert_displacement>
34.798493840429671
</vert_displacement>
</event>
<event>
 4   1200 +8.6263000e+09 9.40309800e-03 7.81665300e-03            nan
       50 -1    0    0    0    0 +9.7807826859e-03 -1.1071382093e-02 +6.4246848503e+00 6.4247037753e+00 4.9935713700e-03 0.0000e+00 0.0000e+00
       11 -1    0    0    0    0 -7.8170447710e-19 +8.8485239143e-19 -5.1347679145e-16 5.1100000000e-04 5.1099893000e-04 0.0000e+00 1.0000e+00
       50  1    1    2    0    0 +5.9538514550e-03 -3.9234812169e-03 +6.3619670142e+00 6.3619729697e+00 4.9935713700e-03 0.0000e+00 0.0000e+00
       11  1    1    2    0    0 +3.8269312309e-03 -7.1479008759e-03 +6.2717836083e-02 6.3241805575e-02 5.1099893000e-04 0.0000e+00 1.0000e+00
<vert_displacement>
62.681445781808883
</vert_displacement>
</event>
<event>
 4   1200 +8.6263000e+09 2.22740100e-02 7.81665300e-03            nan
       50 -1    0    0    0    0 -2.8656780397e-03 +6.7952419598e-04 +1.8685752142e+00 1.8685842075e+00 4.9935713700e-03 0.0000e+00 0.0000e+00
       11 -1    0    0    0    0 -1.3834066908e-19 +3.2804045195e-20 +9.0205508705e-17 5.1100000000e-04 5.1099893000e-04 0.0000e+00 1.0000e+00
       50  1    1    2    0    0 -3.0491028690e-03 +2.1993916313e-02 +9.4970887909e-01 9.4998153674e-01 4.9935713700e-03 0.0000e+00 0.0000e+00
       11  1    1    2    0    0 +1.8342482935e-04 -2.1314392117e-02 +9.1886633507e-01 9.1911367077e-01 5.1099893000e-04 0.0000e+00 1.0000e+00
<vert_displacement>
299.20817823717363
</vert_displacement>
</event>
<event>
 4   1200 +8.6263000e+09 1.53407700e-02 7.81665300e-03            nan
       50 -1    0    0    0    0 -5.1777561913e-02 -4.5352284360e-02 +1.8744088694e+01 1.8744215738e+01 4.9935713700e-03 0.0000e+00 0.0000e+00
       11 -1    0    0    0    0 -4.3701810755e-18 -3.8278684341e-18 +1.5820571433e-15 5.1100000000e-04 5.1099893000e-04 0.0000e+00 1.0000e+00
       50  1    1    2    0    0 -4.1723199173e-02 -3.3869284977e-02 +1.8535947627e+01 1.8536026201e+01 4.9935713700e-03 0.0000e+00 0.0000e+00
       11  1    1    2    0    0 -1.0054362740e-02 -1.1482999384e-02 +2.0814106633e-01 2.0870053689e-01 5.1099893000e-04 0.0000e+00 1.0000e+00
<vert_displacement>
339.54899959723184
</vert_displacement>
</event>
<event>
 4   1200 +8.6263000e+09 2.23218100e-02 7.81665300e-03            nan
       50 -1    0    0    0    0 -2.9249881228e-02 +1.0276752810e-02 +2.2806745348e+01 2.2806766967e+01 4.9935713700e-03 0.0000e+00 0.0000e+00
       11 -1    0    0    0    0 -1.8154354298e-18 +6.3784126199e-19 +1.4155330485e-15 5.1100000000e-04 5.1099893000e-04 0.0000e+00 1.0000e+00
       50  1    1    2    0    0 -2.7654420397e-02 -1.1669966398e-02 +2.2333789356e+01 2.2333810084e+01 4.9935713700e-03 0.0000e+00 0.0000e+00
       11  1    1    2    0    0 -1.5954608314e-03 +2.1946719209e-02 +4.7295599231e-01 4.7346788250e-01 5.1099893000e-04 0.0000e+00 1.0000e+00
<vert_displacement>
252.98624763232215
</vert_displacement>
</event>
<event>
 4   1200 +8.6263000e+09 7.13628200e-03 7.81665300e-03            nan
       50 -1    0    0    0    0 +1.1233525480e-01 -1.6678866836e-02 +4.3274692438e+01 4.3274841743e+01 4.9935713700e-03 0.0000e+00 0.0000e+00
       11 -1    0    0    0    0 +9.8707782373e-18 -1.4655541227e-18 +3.8025007653e-15 5.1100000000e-04 5.1099893000e-04 0.0000e+00 1.0000e+00
       50  1    1    2    0    0 +1.1001781392e-01 -1.2095005203e-02 +4.3249253585e+01 4.3249395497e+01 4.9935713700e-03 0.0000e+00 0.0000e+00
       11  1    1    2    0    0 +2.3174408750e-03 -4.5838616330e-03 +2.5438852481e-02 2.5957246679e-02 5.1099893000e-04 0.0000e+00 1.0000e+00
<vert_displacement>
165.70420999271704
</vert_displacement>
</event>
<event>
 4   1200 +8.6263000e+09 2.96809300e-02 7.81665300e-03            nan
       50 -1    0    0    0    0 +8.6559249867e-03 -2.0729364925e-03 +1.0554864886e+01 1.0554869820e+01 4.9935713700e-03 0.0000e+00 0.0000e+00
       11 -1    0    0    0    0 +1.1494822466e-18 -2.7528007695e-19 +1.4016560702e-15 5.1100000000e-04 5.1099893000e-04 0.0000e+00 1.0000e+00
       50  1    1    2    0    0 +3.6791947555e-02 +2.7413045302e-03 +9.6372541016e+00 9.6373260149e+00 4.9935713700e-03 0.0000e+00 0.0000e+00
       11  1    1    2    0    0 -2.8136022568e-02 -4.8142410227e-03 +9.1761078412e-01 9.1805480497e-01 5.1099893000e-04 0.0000e+00 1.0000e+00
<vert_displacement>
33.219077328504760
</vert_displacement>
</event>
<event>
 4   1200 +8.6263000e+09 8.55022600e-02 7.81665300e-03            nan
       50 -1    0    0    0    0 -3.6472368727e-02 -8.6051571561e-02 +4.1356769855e+01 4.1356875763e+01 4.9935713700e-03 0.0000e+00 0.0000e+00
       11 -1    0    0    0    0 +6.3641416321e-19 +1.5015322783e-18 -7.2164312325e-16 5.1100000000e-04 5.1099893000e-04 0.0000e+00 1.0000e+00
       50  1    1    2    0    0 -1.1253359316e-01 -5.2624573248e-02 +3.2198621944e+01 3.2198861986e+01 4.9935713700e-03 0.0000e+00 0.0000e+00
       11  1    1    2    0    0 +7.6061224429e-02 -3.3426998313e-02 +9.1581479112e+00 9.1585247774e+00 5.1099893000e-04 0.0000e+00 1.0000e+00
<vert_displacement>
71.732629723742761
</vert_displacement>
</event>
<event>
 4   1200 +8.6263000e+09 1.30727100e-02 7.81665300e-03            nan
       50 -1    0    0    0    0 -6.3141135273e-03 +2.2951010202e-02 +9.9311577572e+00 9.9311875398e+00 4.9935713700e-03 0.0000e+00 0.0000e+00
       11 -1    0    0    0    0 +2.6911093188e-19 -9.7818446190e-19 -4.2327131229e-16 5.1100000000e-04 5.1099893000e-04 0.0000e+00 1.0000e+00
       50  1    1    2    0    0 -4.9607354234e-03 +3.4631390113e-02 +9.7861851357e+00 9.7862489437e+00 4.9935713700e-03 0.0000e+00 0.0000e+00
       11  1    1    2    0    0 -1.3533781039e-03 -1.1680379911e-02 +1.4497262147e-01 1.4544959609e-01 5.1099893000e-04 0.0000e+00 1.0000e+00
<vert_displacement>
0.38362829548109911
</vert_displacement>
</event>
<event>
 4   1200 +8.6263000e+09 3.33987500e-02 7.81665300e-03            nan
       50 -1    0    0    0    0 +1.4790454929e-02 +6.7944113513e-03 +5.1239299834e+00 5.1239582680e+00 4.9935713700e-03 0.0000e+00 0.0000e+00
       11 -1    0    0    0    0 -6.0087987203e-20 -2.7603106483e-20 -2.0816576688e-17 5.1100000000e-04 5.1099893000e-04 0.0000e+00 1.0000e+00
       50  1    1    2    0    0 -2.1742045554e-02 +1.2349573146e-02 +3.6035301026e+00 3.6036203136e+00 4.9935713700e-03 0.0000e+00 0.0000e+00
       11  1    1    2    0    0 +3.6532500483e-02 -5.5551617952e-03 +1.5203998808e+00 1.5208489544e+00 5.1099893000e-04 0.0000e+00 1.0000e+00
<vert_displacement>
317.47069192385879
</vert_displacement>
</event>
<event>
 4   1200 +8.6263000e+09 1.33379200e-02 7.81665300e-03            nan
       50 -1    0    0    0    0 -5.2829157989e-02 -2.0665114716e-02 +1.9965096148e+01 1.9965177362e+01 4.9935713700e-03 0.0000e+00 0.0000e+00
       11 -1    0    0    0    0 -6.1324955778e-18 -2.3988405160e-18 +2.3175812089e-15 5.1100000000e-04 5.1099893000e-04 0.0000e+00 1.0000e+00
       50  1    1    2    0    0 -6.4206105004e-02 -1.6728928208e-02 +1.9814253489e+01 1.9814365207e+01 4.9935713700e-03 0.0000e+00 0.0000e+00
       11  1    1    2    0    0 +1.1376947015e-02 -3.9361865080e-03 +1.5084265880e-01 1.5132315527e-01 5.1099893000e-04 0.0000e+00 1.0000e+00
<vert_displacement>
104.80130298689926
</vert_displacement>
</event>
<event>
 4   1200 +8.6263000e+09 3.61868600e-02 7.81665300e-03            nan
       50 -1    0    0    0    0 +2.7465030635e-02 +2.5988084940e-02 +1.3111624349e+01 1.3111679820e+01 4.9935713700e-03 0.0000e+00 0.0000e+00
       11 -1    0    0    0    0 -1.1191872557e-18 -1.0590024038e-18 -5.3429260891e-16 5.1100000000e-04 5.1099893000e-04 0.0000e+00 1.0000e+00
       50  1    1    2    0    0 +1.0006699556e-02 +5.5969338674e-02 +1.1703051608e+01 1.1703190786e+01 4.9935713700e-03 0.0000e+00 0.0000e+00
       11  1    1    2    0    0 +1.7458331079e-02 -2.9981253734e-02 +1.4085727407e+00 1.4090000340e+00 5.1099893000e-04 0.0000e+00 1.0000e+00
<vert_displacement>
455.63031946924070
</vert_displacement>
</event>
<event>
 4   1200 +8.6263000e+09 2.34984200e-02 7.81665300e-03            nan
       50 -1    0    0    0    0 -2.7058464634e-02 +7.3880708544e-02 +3.4547239890e+01 3.4547329846e+01 4.9935713700e-03 0.0000e+00 0.0000e+00
       11 -1    0    0    0    0 -1.7391173729e-19 +4.7485038597e-19 +2.2204402908e-16 5.1100000000e-04 5.1099893000e-04 0.0000e+00 -1.0000e+00
       50  1    1    2    0    0 -4.6820368859e-02 +6.1791277827e-02 +3.4023401990e+01 3.4023490683e+01 4.9935713700e-03 0.0000e+00 0.0000e+00
       11  1    1    2    0    0 +1.9761904225e-02 +1.2089430717e-02 +5.2383790011e-01 5.2435016344e-01 5.1099893000e-04 0.0000e+00 -1.0000e+00
<vert_displacement>
202.44260479617043
</vert_displacement>
</event>
<event>
 4   1200 +8.6263000e+09 1.16292200e-02 7.81665300e-03            nan
       50 -1    0    0    0    0 -1.6165841596e-02 +1.5276433976e-03 +6.0155756518e+00 6.0155996398e+00 4.9935713700e-03 0.0000e+00 0.0000e+00
       11 -1    0    0    0    0 +1.0255869371e-18 -9.6916149013e-20 -3.8163777437e-16 5.1100000000e-04 5.1099893000e-04 0.0000e+00 -1.0000e+00
       50  1    1    2    0    0 -1.1890501741e-02 -8.2195151892e-03 +5.9056336067e+00 5.9056534081e+00 4.9935713700e-03 0.0000e+00 0.0000e+00
       11  1    1    2    0    0 -4.2753398550e-03 +9.7471585868e-03 +1.0994204511e-01 1.1045723169e-01 5.1099893000e-04 0.0000e+00 -1.0000e+00
<vert_displacement>
449.13297602399115
</vert_displacement>
</event>
<event>
 4   1200 +8.6263000e+09 5.04556200e-02 7.81665300e-03            nan
       50 -1    0    0    0    0 -7.4840948399e-02 -7.3298630750e-03 +2.2848046380e+01 2.2848170676e+01 4.9935713700e-03 0.0000e+00 0.0000e+00
       11 -1    0    0    0    0 -4.6821500329e-18 -4.5856605737e-19 +1.4294044023e-15 5.1100000000e-04 5.1099893000e-04 0.0000e+00 -1.0000e+00
       50  1    1    2    0    0 -2.7235057190e-02 +2.5930069608e-02 +2.0034775173e+01 2.0034811087e+01 4.9935713700e-03 0.0000e+00 0.0000e+00
       11  1    1    2    0    0 -4.7605891209e-02 -3.3259932683e-02 +2.8132712070e+00 2.8138705886e+00 5.1099893000e-04 0.0000e+00 -1.0000e+00
<vert_displacement>
478.05383443666108
</vert_displacement>
</event>
<event>
 4   1200 +8.6263000e+09 7.93653200e-03 7.81665300e-03            nan
       50 -1    0    0    0    0 +6.6414030734e-02 +1.3864930200e-02 +2.1927044691e+01 2.1927150223e+01 4.9935713700e-03 0.0000e+00 0.0000e+00
       11 -1    0    0    0    0 +4.2454064433e-18 +8.8629260048e-19 +1.4016498590e-15 5.1100000000e-04 5.1099893000e-04 0.0000e+00 1.0000e+00
       50  1    1    2    0    0 +7.2158935187e-02 +1.5774665805e-02 +2.1889727884e+01 2.1889853073e+01 4.9935713700e-03 0.0000e+00 0.0000e+00
       11  1    1    2    0    0 -5.7449044527e-03 -1.9097356050e-03 +3.7316807101e-02 3.7808150303e-02 5.1099893000e-04 0.0000e+00 1.0000e+00
<vert_displacement>
466.93748236043183
</vert_displacement>
</event>
<event>
 4   1200 +8.6263000e+09 1.31884000e-02 7.81665300e-03            nan
       50 -1    0    0    0    0 -1.7763511687e-02 +6.1049233373e-02 +2.4836498931e+01 2.4836580816e+01 4.9935713700e-03 0.0000e+00 0.0000e+00
       11 -1    0    0    0    0 +4.1687568085e-19 -1.4327088684e-18 -5.8286517802e-16 5.1100000000e-04 5.1099893000e-04 0.0000e+00 1.0000e+00
       50  1    1    2    0    0 -2.0947606393e-02 +7.2443718492e-02 +2.4689807657e+01 2.4689923328e+01 4.9935713700e-03 0.0000e+00 0.0000e+00
       11  1    1    2    0    0 +3.1840947056e-03 -1.1394485119e-02 +1.4669127467e-01 1.4716848825e-01 5.1099893000e-04 0.0000e+00 1.0000e+00
<vert_displacement>
188.10657209722692
</vert_displacement>
</event>
<event>
 4   1200 +8.6263000e+09 2.89125800e-02 7.81665300e-03            nan
       50 -1    0    0    0    0 +3.5362366113e-02 -1.8713498776e-02 +1.1811451172e+01 1.1811519987e+01 4.9935713700e-03 0.0000e+00 0.0000e+00
       11 -1    0    0    0    0 +2.8876238036e-18 -1.5281088472e-18 +9.6450071949e-16 5.1100000000e-04 5.1099893000e-04 0.0000e+00 1.0000e+00
       50  1    1    2    0    0 +5.8457221686e-02 -2.9715977889e-02 +1.0955663610e+01 1.0955861005e+01 4.9935713700e-03 0.0000e+00 0.0000e+00
       11  1    1    2    0    0 -2.3094855573e-02 +1.1002479113e-02 +8.5578756208e-01 8.5616998279e-01 5.1099893000e-04 0.0000e+00 1.0000e+00
<vert_displacement>
407.57287905728492
</vert_displacement>
</event>
<event>
 4   1200 +8.6263000e+09 3.85914600e-02 7.81665300e-03            nan
       50 -1    0    0    0    0 -1.1071740721e-01 -4.5201001893e-02 +4.0648343940e+01 4.0648520163e+01 4.9935713700e-03 0.0000e+00 0.0000e+00
       11 -1    0    0    0    0 +5.6699949567e-19 +2.3148072126e-19 -2.0816591622e-16 5.1100000000e-04 5.1099893000e-04 0.0000e+00 1.0000e+00
       50  1    1    2    0    0 -7.4196883158e-02 -6.3797982809e-02 +3.9161103188e+01 3.9161225762e+01 4.9935713700e-03 0.0000e+00 0.0000e+00
       11  1    1    2    0    0 -3.6520524052e-02 +1.8596980916e-02 +1.4872407519e+00 1.4878054012e+00 5.1099893000e-04 0.0000e+00 1.0000e+00
<vert_displacement>
379.00376430516405
</vert_displacement>
</event>
<event>
 4   1200 +8.6263000e+09 5.33484900e-03 7.81665300e-03            nan
       50 -1    0    0    0    0 -2.4474056704e-02 +1.0257228327e-02 +1.8801733929e+01 1.8801753319e+01 4.9935713700e-03 0.0000e+00 0.0000e+00
       11 -1    0    0    0    0 +1.1380685425e-18 -4.7697155536e-19 -8.7429976108e-16 5.1100000000e-04 5.1099893000e-04 0.0000e+00 1.0000e+00
       50  1    1    2    0    0 -2.3582029964e-02 +8.6009176034e-03 +1.8798286282e+01 1.8798303705e+01 4.9935713700e-03 0.0000e+00 0.0000e+00
       11  1    1    2    0    0 -8.9202674022e-04 +1.6563107236e-03 +3.4476470255e-03 3.9606144519e-03 5.1099893000e-04 0.0000e+00 1.0000e+00
<vert_displacement>
281.14749181568141
</vert_displacement>
</event>
<event>
 4   1200 +8.6263000e+09 1.87052400e-02 7.81665300e-03            nan
       50 -1    0    0    0    0 +3.4006609343e-03 -1.6532632304e-02 +2.5477776316e+01 2.5477782396e+01 4.9935713700e-03 0.0000e+00 0.0000e+00
       11 -1    0    0    0    0 +2.1487206064e-19 -1.0446206898e-18 +1.6098230324e-15 5.1100000000e-04 5.1099893000e-04 0.0000e+00 1.0000e+00
       50  1    1    2    0    0 +1.7859106629e-02 -5.6157804737e-03 +2.5155745470e+01 2.5155752932e+01 4.9935713700e-03 0.0000e+00 0.0000e+00
       11  1    1    2    0    0 -1.4458445694e-02 -1.0916851830e-02 +3.2203084624e-01 3.2254046468e-01 5.1099893000e-04 0.0000e+00 1.0000e+00
<vert_displacement>
54.960620543250691
</vert_displacement>
</event>
<event>
 4   1200 +8.6263000e+09 8.30867200e-03 7.81665300e-03            nan
       50 -1    0    0    0    0 -8.7262139378e-03 -1.9504622843e-02 +9.2674001335e+00 9.2674261123e+00 4.9935713700e-03 0.0000e+00 0.0000e+00
       11 -1    0    0    0    0 -3.0708237599e-19 -6.8638311736e-19 +3.2612714661e-16 5.1100000000e-04 5.1099893000e-04 0.0000e+00 1.0000e+00
       50  1    1    2    0    0 -9.1820353225e-03 -2.6035416347e-02 +9.2240311144e+00 9.2240737794e+00 4.9935713700e-03 0.0000e+00 0.0000e+00
       11  1    1    2    0    0 +4.5582138473e-04 +6.5307935048e-03 +4.3369019143e-02 4.3863332959e-02 5.1099893000e-04 0.0000e+00 1.0000e+00
<vert_displacement>
192.70846807005461
</vert_displacement>
</event>
<event>
 4   1200 +8.6263000e+09 1.17856300e-02 7.81665300e-03            nan
       50 -1    0    0    0    0 -2.8662055525e-02 +7.3383453639e-03 +8.2994753420e+00 8.2995295803e+00 4.9935713700e-03 0.0000e+00 0.0000e+00
       11 -1    0    0    0    0 -1.7013847287e-18 +4.3560548981e-19 +4.9265833676e-16 5.1100000000e-04 5.1099893000e-04 0.0000e+00 1.0000e+00
       50  1    1    2    0    0 -1.8441420432e-02 +1.1401564586e-02 +8.1864425848e+00 8.1864728187e+00 4.9935713700e-03 0.0000e+00 0.0000e+00
       11  1    1    2    0    0 -1.0220635093e-02 -4.0632192216e-03 +1.1303275723e-01 1.1356776153e-01 5.1099893000e-04 0.0000e+00 1.0000e+00
<vert_displacement>
372.26672083880703
</vert_displacement>
</event>
<event>
 4   1200 +8.6263000e+09 5.20294300e-03 7.81665300e-03            nan
       50 -1    0    0    0    0 -9.0856250448e-02 +5.8189829920e-02 +2.7306724816e+01 2.7306938422e+01 4.9935713700e-03 0.0000e+00 0.0000e+00
       11 -1    0    0    0    0 -6.0488573778e-18 +3.8740535768e-18 +1.8179760121e-15 5.1100000000e-04 5.1099893000e-04 0.0000e+00 1.0000e+00
       50  1    1    2    0    0 -8.9593722334e-02 +5.8932625779e-02 +2.7304638315e+01 2.7304849360e+01 4.9935713700e-03 0.0000e+00 0.0000e+00
       11  1    1    2    0    0 -1.2625281133e-03 -7.4279585813e-04 +2.0865004130e-03 2.6000628461e-03 5.1099893000e-04 0.0000e+00 1.0000e+00
<vert_displacement>
279.00165543281577
</vert_displacement>
</event>
<event>
 4   1200 +8.6263000e+09 2.39610300e-02 7.81665300e-03            nan
       50 -1    0    0    0    0 +1.5487702766e-02 +1.4465604054e-03 +7.9475755556e+00 7.9475923467e+00 4.9935713700e-03 0.0000e+00 0.0000e+00
       11 -1    0    0    0    0 +2.0283038466e-19 +1.8944475362e-20 +1.0408320920e-16 5.1100000000e-04 5.1099893000e-04 0.0000e+00 1.0000e+00
       50  1    1    2    0    0 +3.6886144560e-02 -5.1138118307e-03 +7.3676938138e+00 7.3677896149e+00 4.9935713700e-03 0.0000e+00 0.0000e+00
       11  1    1    2    0    0 -2.1398441794e-02 +6.5603722361e-03 +5.7988174177e-01 5.8031373183e-01 5.1099893000e-04 0.0000e+00 1.0000e+00
<vert_displacement>
452.43433347643094
</vert_displacement>
</event>
<event>
 4   1200 +8.6263000e+09 2.76708000e-02 7.81665300e-03            nan
       50 -1    0    0    0    0 -5.9950349814e-02 +5.5645460298e-02 +2.8730381465e+01 2.8730498334e+01 4.9935713700e-03 0.0000e+00 0.0000e+00
       11 -1    0    0    0    0 +7.2395041378e-19 -6.7196528682e-19 -3.4694328914e-16 5.1100000000e-04 5.1099893000e-04 0.0000e+00 1.0000e+00
       50  1    1    2    0    0 -7.1113894603e-02 +7.8267348752e-02 +2.7986218719e+01 2.7986418958e+01 4.9935713700e-03 0.0000e+00 0.0000e+00
       11  1    1    2    0    0 +1.1163544790e-02 -2.2621888454e-02 +7.4416274653e-01 7.4459037666e-01 5.1099893000e-04 0.0000e+00 1.0000e+00
<vert_displacement>
345.22256091361487
</vert_displacement>
</event>
<event>
 4   1200 +8.6263000e+09 4.37692400e-02 7.81665300e-03            nan
       50 -1    0    0    0    0 +4.0187991949e-02 +8.5323846351e-03 +1.5605532765e+01 1.5605587643e+01 4.9935713700e-03 0.0000e+00 0.0000e+00
       11 -1    0    0    0    0 -5.0033914288e-19 -1.0622790062e-19 -1.9428835602e-16 5.1100000000e-04 5.1099893000e-04 0.0000e+00 1.0000e+00
       50  1    1    2    0    0 +2.5127224521e-02 +4.9784359163e-02 +1.3459910827e+01 1.3460027276e+01 4.9935713700e-03 0.0000e+00 0.0000e+00
       11  1    1    2    0    0 +1.5060767428e-02 -4.1251974528e-02 +2.1456219378e+00 2.1460713672e+00 5.1099893000e-04 0.0000e+00 1.0000e+00
<vert_displacement>
433.82485046065182
</vert_displacement>
</event>
<event>
 4   1200 +8.6263000e+09 6.71902800e-03 7.81665300e-03            nan
       50 -1    0    0    0    0 +8.2451812684e-03 +5.3832125254e-03 +4.6836692216e+00 4.6836822347e+00 4.9935713700e-03 0.0000e+00 0.0000e+00
       11 -1    0    0    0    0 +4.8861103457e-20 +3.1901021405e-20 +2.7755514275e-17 5.1100000000e-04 5.1099893000e-04 0.0000e+00 -1.0000e+00
       50  1    1    2    0    0 +6.6709971719e-03 +1.1366029946e-03 +4.6638154573e+00 4.6638230401e+00 4.9935713700e-03 0.0000e+00 0.0000e+00
       11  1    1    2    0    0 +1.5741840966e-03 +4.2466095308e-03 +1.9853764352e-02 2.0370194573e-02 5.1099893000e-04 0.0000e+00 -1.0000e+00
<vert_displacement>
292.82536252797530
</vert_displacement>
</event>
<event>
 4   1200 +8.6263000e+09 9.60316600e-03 7.81665300e-03            nan
       50 -1    0    0    0    0 -4.0494948269e-02 -2.2837335095e-02 +1.5891255445e+01 1.5891324235e+01 4.9935713700e-03 0.0000e+00 0.0000e+00
       11 -1    0    0    0    0 -7.1788860839e-18 -4.0485698615e-18 +2.8171788691e-15 5.1100000000e-04 5.1099893000e-04 0.0000e+00 1.0000e+00
       50  1    1    2    0    0 -3.6448632974e-02 -1.5514114333e-02 +1.5825161754e+01 1.5825212121e+01 4.9935713700e-03 0.0000e+00 0.0000e+00
       11  1    1    2    0    0 -4.0463152951e-03 -7.3232207620e-03 +6.6093691184e-02 6.6623114338e-02 5.1099893000e-04 0.0000e+00 1.0000e+00
<vert_displacement>
139.59100974406641
</vert_displacement>
</event>
<event>
 4   1200 +8.6263000e+09 5.41058400e-02 7.81665300e-03            nan
       50 -1    0    0    0    0 -2.4387296530e-02 +2.6499920725e-02 +1.2313997639e+01 1.2314051315e+01 4.9935713700e-03 0.0000e+00 0.0000e+00
       11 -1    0    0    0    0 -6.0465223052e-19 +6.5703208043e-19 +3.0531002606e-16 5.1100000000e-04 5.1099893000e-04 0.0000e+00 1.0000e+00
       50  1    1    2    0    0 +2.6091281914e-03 -3.3804631968e-02 +7.8590111331e+00 7.8590858557e+00 4.9935713700e-03 0.0000e+00 0.0000e+00
       11  1    1    2    0    0 -2.6996424721e-02 +6.0304552693e-02 +4.4549865060e+00 4.4554764589e+00 5.1099893000e-04 0.0000e+00 1.0000e+00
<vert_displacement>
107.85511068382961
</vert_displacement>
</event>
<event>
 4   1200 +8.6263000e+09 6.99133800e-03 7.81665300e-03            nan
       50 -1    0    0    0    0 -5.5195779011e-03 -6.3138221815e-03 +5.3019562550e+00 5.3019652390e+00 4.9935713700e-03 0.0000e+00 0.0000e+00
       11 -1    0    0    0    0 +4.1897433899e-19 +4.7926300206e-19 -4.0245534298e-16 5.1100000000e-04 5.1099893000e-04 0.0000e+00 1.0000e+00
       50  1    1    2    0    0 -8.5215065565e-03 -2.4408286252e-03 +5.2784228590e+00 5.2784326640e+00 4.9935713700e-03 0.0000e+00 0.0000e+00
       11  1    1    2    0    0 +3.0019286555e-03 -3.8729935562e-03 +2.3533395929e-02 2.4043574996e-02 5.1099893000e-04 0.0000e+00 1.0000e+00
<vert_displacement>
492.67463922167303
</vert_displacement>
</event>
<event>
 4   1200 +8.6263000e+09 4.56109600e-02 7.81665300e-03            nan
       50 -1    0    0    0    0 -3.8552601939e-02 +1.0539237038e-01 +4.4838146342e+01 4.4838287057e+01 4.9935713700e-03 0.0000e+00 0.0000e+00
       11 -1    0    0    0    0 +7.6366854146e-19 -2.0876629259e-18 -8.8817563786e-16 5.1100000000e-04 5.1099893000e-04 0.0000e+00 1.0000e+00
       50  1    1    2    0    0 +7.3751524181e-03 +1.1089394382e-01 +4.2727562360e+01 4.2727707194e+01 4.9935713700e-03 0.0000e+00 0.0000e+00
       11  1    1    2    0    0 -4.5927754357e-02 -5.5015734464e-03 +2.1105839821e+00 2.1110908631e+00 5.1099893000e-04 0.0000e+00 1.0000e+00
<vert_displacement>
296.61676802875684
</vert_displacement>
</event>
<event>
 4   1200 +8.6263000e+09 6.77088700e-03 7.81665300e-03            nan
       50 -1    0    0    0    0 +4.7600608009e-03 +6.0838791257e-04 +4.1807886108e+00 4.1807943470e+00 4.9935713700e-03 0.0000e+00 0.0000e+00
       11 -1    0    0    0    0 -7.1102809473e-20 -9.0877179184e-21 -6.2450003997e-17 5.1100000000e-04 5.1099893000e-04 0.0000e+00 -1.0000e+00
       50  1    1    2    0    0 +6.2651937302e-03 +4.9150011540e-03 +4.1602229600e+00 4.1602335779e+00 4.9935713700e-03 0.0000e+00 0.0000e+00
       11  1    1    2    0    0 -1.5051329293e-03 -4.3066132414e-03 +2.0565650807e-02 2.1071769166e-02 5.1099893000e-04 0.0000e+00 -1.0000e+00
<vert_displacement>
238.67321835648906
</vert_displacement>
</event>
<event>
 4   1200 +8.6263000e+09 2.89416000e-02 7.81665300e-03            nan
       50 -1    0    0    0    0 -9.8605647335e-02 +3.8007770683e-02 +2.8890898189e+01 2.8891091893e+01 4.9935713700e-03 0.0000e+00 0.0000e+00
       11 -1    0    0    0    0 -2.1787927119e-18 +8.3982059850e-19 +6.3837396861e-16 5.1100000000e-04 5.1099893000e-04 0.0000e+00 1.0000e+00
       50  1    1    2    0    0 -8.8725781039e-02 +9.3185139665e-03 +2.8072561626e+01 2.8072703829e+01 4.9935713700e-03 0.0000e+00 0.0000e+00
       11  1    1    2    0    0 -9.8798662959e-03 +2.8689256716e-02 +8.1833656321e-01 8.1889906400e-01 5.1099893000e-04 0.0000e+00 1.0000e+00
<vert_displacement>
256.75000644748002
</vert_displacement>
</event>
<event>
 4   1200 +8.6263000e+09 1.03943600e-02 7.81665300e-03            nan
       50 -1    0    0    0    0 -5.4517274567e-02 -1.8637022469e-02 +1.8462964541e+01 1.8463055112e+01 4.9935713700e-03 0.0000e+00 0.0000e+00
       11 -1    0    0    0    0 -2.0898783414e-18 -7.1443611067e-19 +7.0776373213e-16 5.1100000000e-04 5.1099893000e-04 0.0000e+00 1.0000e+00
       50  1    1    2    0    0 -5.4072959164e-02 -9.4405426987e-03 +1.8381292774e+01 1.8381375411e+01 4.9935713700e-03 0.0000e+00 0.0000e+00
       11  1    1    2    0    0 -4.4431540284e-04 -9.1964797702e-03 +8.1671767478e-02 8.2190701294e-02 5.1099893000e-04 0.0000e+00 1.0000e+00
<vert_displacement>
235.73631087467191
</vert_displacement>
</event>
<event>
 4   1200 +8.6263000e+09 5.99080400e-02 7.81665300e-03            nan
       50 -1    0    0    0    0 +3.3654540587e-02 +5.3881770794e-02 +3.4377453320e+01 3.4377512382e+01 4.9935713700e-03 0.0000e+00 0.0000e+00
       11 -1    0    0    0    0 -3.9806783523e-18 -6.3731667360e-18 -4.0661848847e-15 5.1100000000e-04 5.1099893000e-04 0.0000e+00 1.0000e+00
       50  1    1    2    0    0 -2.8708963742e-02 +3.5836709322e-02 +3.0438511193e+01 3.0438546238e+01 4.9935713700e-03 0.0000e+00 0.0000e+00
       11  1    1    2    0    0 +6.2363504329e-02 +1.8045061472e-02 +3.9389421265e+00 3.9394771439e+00 5.1099893000e-04 0.0000e+00 1.0000e+00
<vert_displacement>
47.499991102904495
</vert_displacement>
</event>
<event>
 4   1200 +8.6263000e+09 1.79768300e-02 7.81665300e-03            nan
       50 -1    0    0    0    0 +9.6998642281e-03 -4.3805933605e-03 +4.8015677521e+00 4.8015821445e+00 4.9935713700e-03 0.0000e+00 0.0000e+00
       11 -1    0    0    0    0 +3.9249109309e-19 -1.7725442708e-19 +1.9428855201e-16 5.1100000000e-04 5.1099893000e-04 0.0000e+00 1.0000e+00
       50  1    1    2    0    0 +5.0596968466e-03 -2.0893199866e-02 +4.4893115438e+00 4.4893657903e+00 4.9935713700e-03 0.0000e+00 0.0000e+00
       11  1    1    2    0    0 +4.6401673815e-03 +1.6512606505e-02 +3.1225620830e-01 3.1272735421e-01 5.1099893000e-04 0.0000e+00 1.0000e+00
<vert_displacement>
373.32578819528902
</vert_displacement>
</event>
<event>
 4   1200 +8.6263000e+09 5.18592000e-02 7.81665300e-03            nan
       50 -1    0    0    0    0 +1.6345400313e-02 +6.0293695169e-03 +1.4247435589e+01 1.4247447116e+01 4.9935713700e-03 0.0000e+00 0.0000e+00
       11 -1    0    0    0    0 +4.6171796734e-19 +1.7031508463e-19 +4.0245554554e-16 5.1100000000e-04 5.1099893000e-04 0.0000e+00 1.0000e+00
       50  1    1    2    0    0 -3.5948584277e-02 -1.3502844093e-02 +1.0809121391e+01 1.0809190757e+01 4.9935713700e-03 0.0000e+00 0.0000e+00
       11  1    1    2    0    0 +5.2293984590e-02 +1.9532213610e-02 +3.4383141976e+00 3.4387673592e+00 5.1099893000e-04 0.0000e+00 1.0000e+00
<vert_displacement>
466.27624920802060
</vert_displacement>
</event>
<event>
 4   1200 +8.6263000e+09 6.92270900e-03 7.81665300e-03            nan
       50 -1    0    0    0    0 -3.7850216508e-03 +4.8566035237e-03 +6.1863848197e+00 6.1863898993e+00 4.9935713700e-03 0.0000e+00 0.0000e+00
       11 -1    0    0    0    0 +4.4152450053e-19 -5.6652501436e-19 -7.2164460856e-16 5.1100000000e-04 5.1099893000e-04 0.0000e+00 1.0000e+00
       50  1    1    2    0    0 -6.7382046561e-03 +8.6051827628e-03 +6.1638021868e+00 6.1638138994e+00 4.9935713700e-03 0.0000e+00 0.0000e+00
       11  1    1    2    0    0 +2.9531830052e-03 -3.7485792391e-03 +2.2582632905e-02 2.3086999913e-02 5.1099893000e-04 0.0000e+00 1.0000e+00
<vert_displacement>
93.017355977238083
</vert_displacement>
</event>
<event>
 4   1200 +8.6263000e+09 1.42621800e-02 7.81665300e-03            nan
       50 -1    0    0    0    0 -5.5535292553e-02 +4.3108048119e-02 +2.1019935754e+01 2.1020053913e+01 4.9935713700e-03 0.0000e+00 0.0000e+00
       11 -1    0    0    0    0 +1.7232700948e-18 -1.3376504697e-18 -6.5225237887e-16 5.1100000000e-04 5.1099893000e-04 0.0000e+00 1.0000e+00
       50  1    1    2    0    0 -4.7879043683e-02 +5.4005830340e-02 +2.0843819116e+01 2.0843944668e+01 4.9935713700e-03 0.0000e+00 0.0000e+00
       11  1    1    2    0    0 -7.6562488708e-03 -1.0897782221e-02 +1.7611663814e-01 1.7662024559e-01 5.1099893000e-04 0.0000e+00 1.0000e+00
<vert_displacement>
112.14142428998184
</vert_displacement>
</event>
<event>
 4   1200 +8.6263000e+09 2.47875100e-02 7.81665300e-03            nan
       50 -1    0    0    0    0 +2.2184887420e-02 +9.0746520977e-03 +1.0363105335e+01 1.0363134258e+01 4.9935713700e-03 0.0000e+00 0.0000e+00
       11 -1    0    0    0    0 +2.1984577185e-18 +8.9927158832e-19 +1.0269535509e-15 5.1100000000e-04 5.1099893000e-04 0.0000e+00 1.0000e+00
       50  1    1    2    0    0 -1.8003240976e-03 -1.4782841779e-04 +9.7499719672e+00 9.7499734133e+00 4.9935713700e-03 0.0000e+00 0.0000e+00
       11  1    1    2    0    0 +2.3985211518e-02 +9.2224805155e-03 +6.1313336788e-01 6.1367184427e-01 5.1099893000e-04 0.0000e+00 1.0000e+00
<vert_displacement>
485.12660088856296
</vert_displacement>
</event>
<event>
 4   1200 +8.6263000e+09 3.27072900e-02 7.81665300e-03            nan
       50 -1    0    0    0    0 +6.3340697946e-02 +1.8971279206e-02 +2.2441087150e+01 2.2441185115e+01 4.9935713700e-03 0.0000e+00 0.0000e+00
       11 -1    0    0    0    0 -7.8340674342e-20 -2.3463947419e-20 -2.7755455138e-17 5.1100000000e-04 5.1099893000e-04 0.0000e+00 1.0000e+00
       50  1    1    2    0    0 +8.8858203942e-02 +2.9037096729e-03 +2.1367225105e+01 2.1367410649e+01 4.9935713700e-03 0.0000e+00 0.0000e+00
       11  1    1    2    0    0 -2.5517505996e-02 +1.6067569533e-02 +1.0738620446e+00 1.0742854657e+00 5.1099893000e-04 0.0000e+00 1.0000e+00
<vert_displacement>
2.0933076798551911
</vert_displacement>
</event>
<event>
 4   1200 +8.6263000e+09 1.40803100e-02 7.81665300e-03            nan
       50 -1    0    0    0    0 -1.6688702459e-02 -1.4297670248e-02 +7.0623497822e+00 7.0623857384e+00 4.9935713700e-03 0.0000e+00 0.0000e+00
       11 -1    0    0    0    0 +5.7389116296e-19 +4.9166833827e-19 -2.4286011088e-16 5.1100000000e-04 5.1099893000e-04 0.0000e+00 1.0000e+00
       50  1    1    2    0    0 -2.7254845094e-02 -6.6776556665e-03 +6.8884420639e+00 6.8885010286e+00 4.9935713700e-03 0.0000e+00 0.0000e+00
       11  1    1    2    0    0 +1.0566142634e-02 -7.6200145813e-03 +1.7390771835e-01 1.7439570985e-01 5.1099893000e-04 0.0000e+00 1.0000e+00
<vert_displacement>
9.7515133124795792
</vert_displacement>
</event>
<event>
 4   1200 +8.6263000e+09 9.64561400e-03 7.81665300e-03            nan
       50 -1    0    0    0    0 +8.2891657112e-03 -1.2866292149e-02 +5.5577912433e+00 5.5578145607e+00 4.9935713700e-03 0.0000e+00 0.0000e+00
       11 -1    0    0    0    0 +4.1395886105e-20 -6.4253940983e-20 +2.7755470372e-17 5.1100000000e-04 5.1099893000e-04 0.0000e+00 1.0000e+00
       50  1    1    2    0    0 +1.6417194096e-02 -1.3335623619e-02 +5.4903130210e+00 5.4903560328e+00 4.9935713700e-03 0.0000e+00 0.0000e+00
       11  1    1    2    0    0 -8.1280283851e-03 +4.6933146975e-04 +6.7478222335e-02 6.7969527929e-02 5.1099893000e-04 0.0000e+00 1.0000e+00
<vert_displacement>
50.169296805016543
</vert_displacement>
</event>
<event>
 4   1200 +8.6263000e+09 1.63568500e-02 7.81665300e-03            nan
       50 -1    0    0    0    0 +1.0175903666e-02 +2.0111928931e-03 +4.6831829563e+00 4.6831971058e+00 4.9935713700e-03 0.0000e+00 0.0000e+00
       11 -1    0    0    0    0 -1.2212541798e-18 -2.4137195160e-19 -5.6204902758e-16 5.1100000000e-04 5.1099893000e-04 0.0000e+00 1.0000e+00
       50  1    1    2    0    0 +8.5267713771e-03 +1.7440232962e-02 +4.4322507879e+00 4.4322961149e+00 4.9935713700e-03 0.0000e+00 0.0000e+00
       11  1    1    2    0    0 +1.6491322885e-03 -1.5429040069e-02 +2.5093216843e-01 2.5141199094e-01 5.1099893000e-04 0.0000e+00 1.0000e+00
<vert_displacement>
41.809110077596500
</vert_displacement>
</event>
<event>
 4   1200 +8.6263000e+09 1.10401800e-02 7.81665300e-03            nan
       50 -1    0    0    0    0 +2.7722181200e-02 -3.8695020850e-02 +1.6141787149e+01 1.6141858107e+01 4.9935713700e-03 0.0000e+00 0.0000e+00
       11 -1    0    0    0    0 -8.5801847028e-19 +1.1976345713e-18 -4.9959818882e-16 5.1100000000e-04 5.1099893000e-04 0.0000e+00 1.0000e+00
       50  1    1    2    0    0 +2.4235932552e-02 -2.9197430970e-02 +1.6046384513e+01 1.6046430155e+01 4.9935713700e-03 0.0000e+00 0.0000e+00
       11  1    1    2    0    0 +3.4862486476e-03 -9.4975898799e-03 +9.5402636573e-02 9.5938951047e-02 5.1099893000e-04 0.0000e+00 1.0000e+00
<vert_displacement>
339.88176545510510
</vert_displacement>
</event>
<event>
 4   1200 +8.6263000e+09 6.13736700e-03 7.81665300e-03            nan
       50 -1    0    0    0    0 -3.8713201830e-02 +2.8745551038e-02 +1.8931902440e+01 1.8931964504e+01 4.9935713700e-03 0.0000e+00 0.0000e+00
       11 -1    0    0    0    0 +1.5891748931e-18 -1.1800033539e-18 -7.7715359658e-16 5.1100000000e-04 5.1099893000e-04 0.0000e+00 1.0000e+00
       50  1    1    2    0    0 -3.5372334377e-02 +2.7407636613e-02 +1.8919445251e+01 1.8919498828e+01 4.9935713700e-03 0.0000e+00 0.0000e+00
       11  1    1    2    0    0 -3.3408674536e-03 +1.3379144253e-03 +1.2457189783e-02 1.2976675520e-02 5.1099893000e-04 0.0000e+00 1.0000e+00
<vert_displacement>
336.63066137173320
</vert_displacement>
</event>
<event>
 4   1200 +8.6263000e+09 5.78200000e-03 7.81665300e-03            nan
       50 -1    0    0    0    0 -4.1052810764e-02 +2.0079602558e-02 +1.9223022469e+01 1.9223077441e+01 4.9935713700e-03 0.0000e+00 0.0000e+00
       11 -1    0    0    0    0 -5.1272718250e-18 +2.5078326803e-18 +2.4008505061e-15 5.1100000000e-04 5.1099893000e-04 0.0000e+00 1.0000e+00
       50  1    1    2    0    0 -3.8459186532e-02 +2.1434985511e-02 +1.9214709855e+01 1.9214760949e+01 4.9935713700e-03 0.0000e+00 0.0000e+00
       11  1    1    2    0    0 -2.5936242318e-03 -1.3553829525e-03 +8.3126142829e-03 8.8274926070e-03 5.1099893000e-04 0.0000e+00 1.0000e+00
<vert_displacement>
483.67136309190710
</vert_displacement>
</event>
<event>
 4   1200 +8.6263000e+09 2.74315600e-02 7.81665300e-03            nan
       50 -1    0    0    0    0 +7.5185132024e-03 +2.0530324523e-03 +5.2303474191e+00 5.2303556096e+00 4.9935713700e-03 0.0000e+00 0.0000e+00
       11 -1    0    0    0    0 -1.0872206495e-18 -2.9688040923e-19 -7.5633859583e-16 5.1100000000e-04 5.1099893000e-04 0.0000e+00 1.0000e+00
       50  1    1    2    0    0 -8.7298129544e-04 +2.7722291918e-02 +4.3792548225e+00 4.3793455017e+00 4.9935713700e-03 0.0000e+00 0.0000e+00
       11  1    1    2    0    0 +8.3914944978e-03 -2.5669259466e-02 +8.5109259657e-01 8.5152110785e-01 5.1099893000e-04 0.0000e+00 1.0000e+00
<vert_displacement>
88.582569358139494
</vert_displacement>
</event>
<event>
 4   1200 +8.6263000e+09 1.70425600e-02 7.81665300e-03            nan
       50 -1    0    0    0    0 +1.5717820230e-02 +1.9819914116e-02 +1.3197361883e+01 1.3197387070e+01 4.9935713700e-03 0.0000e+00 0.0000e+00
       11 -1    0    0    0    0 -1.0825948001e-18 -1.3651343282e-18 -9.0899343165e-16 5.1100000000e-04 5.1099893000e-04 0.0000e+00 1.0000e+00
       50  1    1    2    0    0 +1.0772744617e-02 +3.7985977887e-03 +1.2932247031e+01 1.2932253040e+01 4.9935713700e-03 0.0000e+00 0.0000e+00
       11  1    1    2    0    0 +4.9450756133e-03 +1.6021316327e-02 +2.6511485145e-01 2.6564502994e-01 5.1099893000e-04 0.0000e+00 1.0000e+00
<vert_displacement>
188.85320843352687
</vert_displacement>
</event>
<event>
 4   1200 +8.6263000e+09 1.31256600e-02 7.81665300e-03            nan
       50 -1    0    0    0    0 -2.2203517706e-02 +2.2535354661e-03 +7.8970476441e+00 7.8970807583e+00 4.9935713700e-03 0.0000e+00 0.0000e+00
       11 -1    0    0    0    0 +1.4046820617e-18 -1.4256753756e-19 -4.9959836603e-16 5.1100000000e-04 5.1099893000e-04 0.0000e+00 1.0000e+00
       50  1    1    2    0    0 -1.5775160213e-02 +1.2755030724e-02 +7.7501354103e+00 7.7501635699e+00 4.9935713700e-03 0.0000e+00 0.0000e+00
       11  1    1    2    0    0 -6.4283574931e-03 -1.0501495258e-02 +1.4691223371e-01 1.4742818834e-01 5.1099893000e-04 0.0000e+00 1.0000e+00
<vert_displacement>
487.52258195356706
</vert_displacement>
</event>
<event>
 4   1200 +8.6263000e+09 8.36454800e-03 7.81665300e-03            nan
       50 -1    0    0    0    0 -7.9402836163e-02 -5.5974874237e-02 +2.4891676960e+01 2.4891867042e+01 4.9935713700e-03 0.0000e+00 0.0000e+00
       11 -1    0    0    0    0 +1.7264873521e-18 +1.2170838861e-18 -5.4122960238e-16 5.1100000000e-04 5.1099893000e-04 0.0000e+00 1.0000e+00
       50  1    1    2    0    0 -7.2622603327e-02 -5.4902314349e-02 +2.4847560842e+01 2.4847728127e+01 4.9935713700e-03 0.0000e+00 0.0000e+00
       11  1    1    2    0    0 -6.7802328358e-03 -1.0725598875e-03 +4.4116117793e-02 4.4649915018e-02 5.1099893000e-04 0.0000e+00 1.0000e+00
<vert_displacement>
235.83284820768296
</vert_displacement>
</event>
<event>
 4   1200 +8.6263000e+09 1.04920300e-02 7.81665300e-03            nan
       50 -1    0    0    0    0 -1.8877202010e-02 +3.2376268557e-02 +1.4066003566e+01 1.4066054380e+01 4.9935713700e-03 0.0000e+00 0.0000e+00
       11 -1    0    0    0    0 +1.6762087789e-19 -2.8748638466e-19 -1.2489964693e-16 5.1100000000e-04 5.1099893000e-04 0.0000e+00 1.0000e+00
       50  1    1    2    0    0 -1.3059111007e-02 +2.4931276119e-02 +1.3982210782e+01 1.3982240000e+01 4.9935713700e-03 0.0000e+00 0.0000e+00
       11  1    1    2    0    0 -5.8180910032e-03 +7.4449924379e-03 +8.3792783704e-02 8.4325380617e-02 5.1099893000e-04 0.0000e+00 1.0000e+00
<vert_displacement>
265.15658440434862
</vert_displacement>
</event>
<event>
 4   1200 +8.6263000e+09 1.15070800e-01 7.81665300e-03            nan
       50 -1    0    0    0    0 +6.3991374865e-02 -1.2239745186e-01 +5.2985861775e+01 5.2986042021e+01 4.9935713700e-03 0.0000e+00 0.0000e+00
       11 -1    0    0    0    0 -3.5531706597e-18 +6.7962133287e-18 -2.9420810200e-15 5.1100000000e-04 5.1099893000e-04 0.0000e+00 1.0000e+00
       50  1    1    2    0    0 -4.5875071020e-03 +3.6654159031e-02 +3.0547420057e+01 3.0547442800e+01 4.9935713700e-03 0.0000e+00 0.0000e+00
       11  1    1    2    0    0 +6.8578881967e-02 -1.5905161089e-01 +2.2438441719e+01 2.2439110221e+01 5.1099893000e-04 0.0000e+00 1.0000e+00
<vert_displacement>
169.70811324933140
</vert_displacement>
</event>
<event>
 4   1200 +8.6263000e+09 8.73461400e-03 7.81665300e-03            nan
       50 -1    0    0    0    0 -6.7903175739e-02 -2.4179834470e-02 +2.4466889904e+01 2.4466996588e+01 4.9935713700e-03 0.0000e+00 0.0000e+00
       11 -1    0    0    0    0 +5.7772469986e-19 +2.0572362720e-19 -2.0816591378e-16 5.1100000000e-04 5.1099893000e-04 0.0000e+00 1.0000e+00
       50  1    1    2    0    0 -7.4847212435e-02 -2.3045048196e-02 +2.4416514562e+01 2.4416640667e+01 4.9935713700e-03 0.0000e+00 0.0000e+00
       11  1    1    2    0    0 +6.9440366961e-03 -1.1347862736e-03 +5.0375342550e-02 5.0866920906e-02 5.1099893000e-04 0.0000e+00 1.0000e+00
<vert_displacement>
471.60120812785397
</vert_displacement>
</event>
<event>
 4   1200 +8.6263000e+09 1.63784200e-02 7.81665300e-03            nan
       50 -1    0    0    0    0 +5.3162483645e-03 -6.7625723304e-03 +4.4285696760e+00 4.4285808456e+00 4.9935713700e-03 0.0000e+00 0.0000e+00
       11 -1    0    0    0    0 +5.5809227449e-19 -7.0992532976e-19 +4.6490501454e-16 5.1100000000e-04 5.1099893000e-04 0.0000e+00 1.0000e+00
       50  1    1    2    0    0 +1.8649227924e-02 +1.1975048873e-03 +4.1759728654e+00 4.1760176647e+00 4.9935713700e-03 0.0000e+00 0.0000e+00
       11  1    1    2    0    0 -1.3332979559e-02 -7.9600772177e-03 +2.5259681065e-01 2.5307418092e-01 5.1099893000e-04 0.0000e+00 1.0000e+00
<vert_displacement>
222.69045102507695
</vert_displacement>
</event>
<event>
 4   1200 +8.6263000e+09 2.25436200e-02 7.81665300e-03            nan
       50 -1    0    0    0    0 +1.5163400593e-02 -2.5583036716e-02 +1.1749048208e+01 1.1749086907e+01 4.9935713700e-03 0.0000e+00 0.0000e+00
       11 -1    0    0    0    0 -7.7016048073e-19 +1.2993816086e-18 -5.9674296408e-16 5.1100000000e-04 5.1099893000e-04 0.0000e+00 1.0000e+00
       50  1    1    2    0    0 +2.8627537879e-02 -4.1373107799e-02 +1.1255312070e+01 1.1255425625e+01 4.9935713700e-03 0.0000e+00 0.0000e+00
       11  1    1    2    0    0 -1.3464137286e-02 +1.5790071083e-02 +4.9373613740e-01 4.9417228153e-01 5.1099893000e-04 0.0000e+00 1.0000e+00
<vert_displacement>
417.80262917078136
</vert_displacement>
</event>
<event>
 4   1200 +8.6263000e+09 1.18598200e-02 7.81665300e-03            nan
       50 -1    0    0    0    0 +1.4622216471e-02 +4.6940243120e-03 +4.2973873100e+00 4.2974176514e+00 4.9935713700e-03 0.0000e+00 0.0000e+00
       11 -1    0    0    0    0 -8.0274036775e-19 -2.5769573374e-19 -2.3592088630e-16 5.1100000000e-04 5.1099893000e-04 0.0000e+00 1.0000e+00
       50  1    1    2    0    0 +1.3115761886e-02 +1.5266708288e-02 +4.1809668380e+00 4.1810182649e+00 4.9935713700e-03 0.0000e+00 0.0000e+00
       11  1    1    2    0    0 +1.5064545856e-03 -1.0572683976e-02 +1.1642047202e-01 1.1691038652e-01 5.1099893000e-04 0.0000e+00 1.0000e+00
<vert_displacement>
25.836995935192633
</vert_displacement>
</event>
<event>
 4   1200 +8.6263000e+09 1.07496400e-02 7.81665300e-03            nan
       50 -1    0    0    0    0 -2.3005457136e-02 +1.5542568870e-02 +8.1672254282e+00 8.1672741446e+00 4.9935713700e-03 0.0000e+00 0.0000e+00
       11 -1    0    0    0    0 -1.4072671783e-18 +9.5075472345e-19 +4.9959747443e-16 5.1100000000e-04 5.1099893000e-04 0.0000e+00 1.0000e+00
       50  1    1    2    0    0 -2.9929905769e-02 +9.1181744123e-03 +8.0775564892e+00 8.0776186288e+00 4.9935713700e-03 0.0000e+00 0.0000e+00
       11  1    1    2    0    0 +6.9244486332e-03 +6.4243944573e-03 +8.9668939082e-02 9.0166515897e-02 5.1099893000e-04 0.0000e+00 1.0000e+00
<vert_displacement>
320.12275051308006
</vert_displacement>
</event>
<event>
 4   1200 +8.6263000e+09 1.81458000e-02 7.81665300e-03            nan
       50 -1    0    0    0    0 -3.5829779928e-02 -9.0419155696e-03 +4.6354541551e+01 4.6354556549e+01 4.9935713700e-03 0.0000e+00 0.0000e+00
       11 -1    0    0    0    0 +5.9855788212e-18 +1.5105060217e-18 -7.7438031362e-15 5.1099999999e-04 5.1099893000e-04 0.0000e+00 1.0000e+00
       50  1    1    2    0    0 -3.0228090063e-02 -2.5581558626e-02 +4.6054817236e+01 4.6054834531e+01 4.9935713700e-03 0.0000e+00 0.0000e+00
       11  1    1    2    0    0 -5.6016898652e-03 +1.6539643057e-02 +2.9972431525e-01 3.0023301783e-01 5.1099893000e-04 0.0000e+00 1.0000e+00
<vert_displacement>
295.19752107196058
</vert_displacement>
</event>
<event>
 4   1200 +8.6263000e+09 2.72172800e-02 7.81665300e-03            nan
       50 -1    0    0    0    0 +1.8113275455e-02 +1.3094645089e-02 +7.7649221645e+00 7.7649559379e+00 4.9935713700e-03 0.0000e+00 0.0000e+00
       11 -1    0    0    0    0 -2.2175269167e-18 -1.6031185537e-18 -9.5062452669e-16 5.1100000000e-04 5.1099893000e-04 0.0000e+00 1.0000e+00
       50  1    1    2    0    0 +3.7248993541e-02 +2.8419434685e-02 +6.9860046189e+00 6.9861635124e+00 4.9935713700e-03 0.0000e+00 0.0000e+00
       11  1    1    2    0    0 -1.9135718086e-02 -1.5324789597e-02 +7.7891754564e-01 7.7930342544e-01 5.1099893000e-04 0.0000e+00 1.0000e+00
<vert_displacement>
175.85992650523082
</vert_displacement>
</event>
<event>
 4   1200 +8.6263000e+09 7.84146300e-03 7.81665300e-03            nan
       50 -1    0    0    0    0 -2.0080669163e-02 +4.0547501397e-02 +1.7228673750e+01 1.7228733890e+01 4.9935713700e-03 0.0000e+00 0.0000e+00
       11 -1    0    0    0    0 +2.4586044705e-18 -4.9644893502e-18 -2.1094164721e-15 5.1100000000e-04 5.1099893000e-04 0.0000e+00 1.0000e+00
       50  1    1    2    0    0 -2.1739928445e-02 +3.4661499493e-02 +1.7192843881e+01 1.7192893290e+01 4.9935713700e-03 0.0000e+00 0.0000e+00
       11  1    1    2    0    0 +1.6592592824e-03 +5.8860019039e-03 +3.5829869328e-02 3.6351599906e-02 5.1099893000e-04 0.0000e+00 1.0000e+00
<vert_displacement>
396.15132933865459
</vert_displacement>
</event>
<event>
 4   1200 +8.6263000e+09 1.35653300e-02 7.81665300e-03            nan
       50 -1    0    0    0    0 +1.8634677455e-03 -2.2176542381e-03 +1.6162084529e+00 1.6162187629e+00 4.9935713700e-03 0.0000e+00 0.0000e+00
       11 -1    0    0    0    0 +6.0003325327e-20 -7.1408066508e-20 +5.2041620697e-17 5.1100000000e-04 5.1099893000e-04 0.0000e+00 1.0000e+00
       50  1    1    2    0    0 -1.0947743953e-02 -1.6914929351e-03 +1.4413013173e+00 1.4413525374e+00 4.9935713700e-03 0.0000e+00 0.0000e+00
       11  1    1    2    0    0 +1.2811211699e-02 -5.2616130291e-04 +1.7490713561e-01 1.7537722543e-01 5.1099893000e-04 0.0000e+00 1.0000e+00
<vert_displacement>
278.31819649641761
</vert_displacement>
</event>
<event>
 4   1200 +8.6263000e+09 2.18223300e-02 7.81665300e-03            nan
       50 -1    0    0    0    0 -8.8167856204e-03 -6.0573061760e-03 +4.7475609903e+00 4.7475756676e+00 4.9935713700e-03 0.0000e+00 0.0000e+00
       11 -1    0    0    0    0 +1.4174950739e-19 +9.7384716328e-20 -7.6327639195e-17 5.1100000000e-04 5.1099893000e-04 0.0000e+00 1.0000e+00
       50  1    1    2    0    0 +6.4168227517e-03 +1.0264933064e-02 +4.2545247657e+00 4.2545449183e+00 4.9935713700e-03 0.0000e+00 0.0000e+00
       11  1    1    2    0    0 -1.5233608372e-02 -1.6322239240e-02 +4.9303622467e-01 4.9354174928e-01 5.1099893000e-04 0.0000e+00 1.0000e+00
<vert_displacement>
146.49400047670599
</vert_displacement>
</event>
<event>
 4   1200 +8.6263000e+09 1.77868000e-02 7.81665300e-03            nan
       50 -1    0    0    0    0 -6.0171031639e-02 +2.8121864004e-02 +2.8073631899e+01 2.8073710912e+01 4.9935713700e-03 0.0000e+00 0.0000e+00
       11 -1    0    0    0    0 +6.4545744966e-18 -3.0166454065e-18 -3.0114715263e-15 5.1100000000e-04 5.1099893000e-04 0.0000e+00 1.0000e+00
       50  1    1    2    0    0 -7.4598915821e-02 +1.9766714966e-02 +2.7785482792e+01 2.7785590414e+01 4.9935713700e-03 0.0000e+00 0.0000e+00
       11  1    1    2    0    0 +1.4427884182e-02 +8.3551490381e-03 +2.8814910764e-01 2.8863149813e-01 5.1099893000e-04 0.0000e+00 1.0000e+00
<vert_displacement>
423.25832685202425
</vert_displacement>
</event>
<event>
 4   1200 +8.6263000e+09 1.21398400e-02 7.81665300e-03            nan
       50 -1    0    0    0    0 -2.2738603644e-02 -1.9413584170e-02 +9.7371083028e+00 9.7371554864e+00 4.9935713700e-03 0.0000e+00 0.0000e+00
       11 -1    0    0    0    0 -6.8056761809e-19 -5.8104960812e-19 +2.9143217008e-16 5.1100000000e-04 5.1099893000e-04 0.0000e+00 1.0000e+00
       50  1    1    2    0    0 -3.3163523813e-02 -2.1959605524e-02 +9.6157522765e+00 9.6158358359e+00 4.9935713700e-03 0.0000e+00 0.0000e+00
       11  1    1    2    0    0 +1.0424920168e-02 +2.5460213542e-03 +1.2135602628e-01 1.2183065058e-01 5.1099893000e-04 0.0000e+00 1.0000e+00
<vert_displacement>
63.442663418595330
</vert_displacement>
</event>
<event>
 4   1200 +8.6263000e+09 1.96217400e-02 7.81665300e-03            nan
       50 -1    0    0    0    0 +4.6027292844e-02 -2.4735221516e-02 +1.7514847508e+01 1.7514926163e+01 4.9935713700e-03 0.0000e+00 0.0000e+00
       11 -1    0    0    0    0 +5.0692321658e-18 -2.7242223643e-18 +1.9290039210e-15 5.1100000000e-04 5.1099893000e-04 0.0000e+00 1.0000e+00
       50  1    1    2    0    0 +6.2970150283e-02 -3.0558534157e-02 +1.7155058610e+01 1.7155202124e+01 4.9935713700e-03 0.0000e+00 0.0000e+00
       11  1    1    2    0    0 -1.6942857439e-02 +5.8233126408e-03 +3.5978889824e-01 3.6023503967e-01 5.1099893000e-04 0.0000e+00 1.0000e+00
<vert_displacement>
387.22213567712856
</vert_displacement>
</event>
<event>
 4   1200 +8.6263000e+09 5.69994200e-03 7.81665300e-03            nan
       50 -1    0    0    0    0 +1.1118014112e-03 -3.5696756771e-05 +3.3933195583e+00 3.3933234149e+00 4.9935713700e-03 0.0000e+00 0.0000e+00
       11 -1    0    0    0    0 +1.1594789287e-19 -3.7227545208e-21 +3.5388357008e-16 5.1100000000e-04 5.1099893000e-04 0.0000e+00 1.0000e+00
       50  1    1    2    0    0 -8.7341592030e-04 -1.9388077715e-03 +3.3859117960e+00 3.3859161460e+00 4.9935713700e-03 0.0000e+00 0.0000e+00
       11  1    1    2    0    0 +1.9852173315e-03 +1.9031110148e-03 +7.4077623775e-03 7.9182689230e-03 5.1099893000e-04 0.0000e+00 1.0000e+00
<vert_displacement>
282.44720426871726
</vert_displacement>
</event>
<event>
 4   1200 +8.6263000e+09 2.12526200e-02 7.81665300e-03            nan
       50 -1    0    0    0    0 -4.4825980925e-02 +1.4183177218e-02 +1.5318087370e+01 1.5318160338e+01 4.9935713700e-03 0.0000e+00 0.0000e+00
       11 -1    0    0    0    0 -6.2947017128e-18 +1.9916768821e-18 +2.1510469779e-15 5.1100000000e-04 5.1099893000e-04 0.0000e+00 1.0000e+00
       50  1    1    2    0    0 -6.1958514638e-02 +2.3195464765e-02 +1.4888391959e+01 1.4888539785e+01 4.9935713700e-03 0.0000e+00 0.0000e+00
       11  1    1    2    0    0 +1.7132533712e-02 -9.0122875477e-03 +4.2969541091e-01 4.3013155234e-01 5.1099893000e-04 0.0000e+00 1.0000e+00
<vert_displacement>
101.07183381218687
</vert_displacement>
</event>
<event>
 4   1200 +8.6263000e+09 1.44801000e-02 7.81665300e-03            nan
       50 -1    0    0    0    0 +2.5148699396e-02 -3.9100747522e-02 +1.6619851252e+01 1.6619917025e+01 4.9935713700e-03 0.0000e+00 0.0000e+00
       11 -1    0    0    0    0 -2.6039259286e-18 +4.0485374092e-18 -1.7208389557e-15 5.1100000000e-04 5.1099893000e-04 0.0000e+00 1.0000e+00
       50  1    1    2    0    0 +1.7959938149e-02 -2.6967838513e-02 +1.6437110589e+01 1.6437143282e+01 4.9935713700e-03 0.0000e+00 0.0000e+00
       11  1    1    2    0    0 +7.1887612470e-03 -1.2132909009e-02 +1.8274066390e-01 1.8328474332e-01 5.1099893000e-04 0.0000e+00 1.0000e+00
<vert_displacement>
258.30435481670565
</vert_displacement>
</event>
<event>
 4   1200 +8.6263000e+09 1.85809000e-02 7.81665300e-03            nan
       50 -1    0    0    0    0 -4.9633980763e-03 -7.4265510174e-03 +4.7754407196e+00 4.7754516846e+00 4.9935713700e-03 0.0000e+00 0.0000e+00
       11 -1    0    0    0    0 +4.3993141158e-19 +6.5825328173e-19 -4.2327178767e-16 5.1100000000e-04 5.1099893000e-04 0.0000e+00 1.0000e+00
       50  1    1    2    0    0 -1.8352539126e-02 +4.5668819588e-03 +4.4380313991e+00 4.4380745045e+00 4.9935713700e-03 0.0000e+00 0.0000e+00
       11  1    1    2    0    0 +1.3389141050e-02 -1.1993432976e-02 +3.3740932053e-01 3.3788818007e-01 5.1099893000e-04 0.0000e+00 1.0000e+00
<vert_displacement>
303.95414954337861
</vert_displacement>
</event>
<event>
 4   1200 +8.6263000e+09 1.40935300e-02 7.81665300e-03            nan
       50 -1    0    0    0    0 -9.0670003539e-04 -9.4155294742e-03 +5.4032769421e+00 5.4032875292e+00 4.9935713700e-03 0.0000e+00 0.0000e+00
       11 -1    0    0    0    0 +5.3561634106e-20 +5.5620505672e-19 -3.1918863048e-16 5.1100000000e-04 5.1099893000e-04 0.0000e+00 1.0000e+00
       50  1    1    2    0    0 -1.1691424870e-02 -1.6642238145e-02 +5.2275539465e+00 5.2275958961e+00 4.9935713700e-03 0.0000e+00 0.0000e+00
       11  1    1    2    0    0 +1.0784724835e-02 +7.2267086707e-03 +1.7572299564e-01 1.7620263314e-01 5.1099893000e-04 0.0000e+00 1.0000e+00
<vert_displacement>
12.935716922869112
</vert_displacement>
</event>
<event>
 4   1200 +8.6263000e+09 7.90842200e-03 7.81665300e-03            nan
       50 -1    0    0    0    0 -1.6232414767e-02 -1.4547615059e-02 +9.0140316282e+00 9.0140593661e+00 4.9935713700e-03 0.0000e+00 0.0000e+00
       11 -1    0    0    0    0 -2.1492229918e-18 -1.9261501883e-18 +1.1934862620e-15 5.1100000000e-04 5.1099893000e-04 0.0000e+00 1.0000e+00
       50  1    1    2    0    0 -1.0698773347e-02 -1.7266141051e-02 +8.9770852918e+00 8.9771096604e+00 4.9935713700e-03 0.0000e+00 0.0000e+00
       11  1    1    2    0    0 -5.5336414202e-03 +2.7185259918e-03 +3.6946336466e-02 3.7460705667e-02 5.1099893000e-04 0.0000e+00 1.0000e+00
<vert_displacement>
351.39314750161651
</vert_displacement>
</event>
<event>
 4   1200 +8.6263000e+09 7.13972100e-03 7.81665300e-03            nan
       50 -1    0    0    0    0 -1.6231544513e-02 -6.0122501201e-03 +2.3759523742e+01 2.3759530571e+01 4.9935713700e-03 0.0000e+00 0.0000e+00
       11 -1    0    0    0    0 -1.2514577003e-18 -4.6354656532e-19 +1.8318675045e-15 5.1100000000e-04 5.1099893000e-04 0.0000e+00 1.0000e+00
       50  1    1    2    0    0 -2.1167625280e-02 -4.7799807216e-03 +2.3734013404e+01 2.3734023850e+01 4.9935713700e-03 0.0000e+00 0.0000e+00
       11  1    1    2    0    0 +4.9360807669e-03 -1.2322693986e-03 +2.5510337331e-02 2.6017721112e-02 5.1099893000e-04 0.0000e+00 1.0000e+00
<vert_displacement>
61.105114790785201
</vert_displacement>
</event>
<event>
 4   1200 +8.6263000e+09 5.03793800e-02 7.81665300e-03            nan
       50 -1    0    0    0    0 -5.2446639328e-02 +3.6323040864e-02 +1.6636500706e+01 1.6636623777e+01 4.9935713700e-03 0.0000e+00 0.0000e+00
       11 -1    0    0    0    0 +1.0849866947e-17 -7.5143072184e-18 -3.4416660712e-15 5.1100000000e-04 5.1099893000e-04 0.0000e+00 1.0000e+00
       50  1    1    2    0    0 -7.0661764573e-02 -1.2028664925e-02 +1.3635144085e+01 1.3635333400e+01 4.9935713700e-03 0.0000e+00 0.0000e+00
       11  1    1    2    0    0 +1.8215125245e-02 +4.8351705789e-02 +3.0013566209e+00 3.0018013767e+00 5.1099893000e-04 0.0000e+00 1.0000e+00
<vert_displacement>
204.21717710627544
</vert_displacement>
</event>
<event>
 4   1200 +8.6263000e+09 1.45708700e-02 7.81665300e-03            nan
       50 -1    0    0    0    0 +8.9799952144e-03 -1.4873726712e-02 +6.2869214344e+00 6.2869474251e+00 4.9935713700e-03 0.0000e+00 0.0000e+00
       11 -1    0    0    0    0 +1.2289899910e-18 -2.0355981068e-18 +8.6041955844e-16 5.1100000000e-04 5.1099893000e-04 0.0000e+00 1.0000e+00
       50  1    1    2    0    0 +1.6050711036e-02 -2.8727596502e-03 +6.0978755139e+00 6.0978993593e+00 4.9935713700e-03 0.0000e+00 0.0000e+00
       11  1    1    2    0    0 -7.0707158215e-03 -1.2000967062e-02 +1.8904592057e-01 1.8955906583e-01 5.1099893000e-04 0.0000e+00 1.0000e+00
<vert_displacement>
21.607759033177057
</vert_displacement>
</event>
<event>
 4   1200 +8.6263000e+09 2.09050200e-02 7.81665300e-03            nan
       50 -1    0    0    0    0 +1.7193319270e-01 -4.7773692410e-02 +6.0078944822e+01 6.0079210042e+01 4.9935713700e-03 0.0000e+00 0.0000e+00
       11 -1    0    0    0    0 -1.6322909787e-17 +4.5355155636e-18 -5.7037456294e-15 5.1100000000e-04 5.1099893000e-04 0.0000e+00 1.0000e+00
       50  1    1    2    0    0 +1.5229439185e-01 -5.5858085544e-02 +5.9673031914e+01 5.9673252605e+01 4.9935713700e-03 0.0000e+00 0.0000e+00
       11  1    1    2    0    0 +1.9638800845e-02 +8.0843931343e-03 +4.0591290786e-01 4.0646843641e-01 5.1099893000e-04 0.0000e+00 1.0000e+00
<vert_displacement>
485.99239980434282
</vert_displacement>
</event>
<event>
 4   1200 +8.6263000e+09 3.67853200e-02 7.81665300e-03            nan
       50 -1    0    0    0    0 -2.1928321683e-02 +6.1552195372e-03 +1.2754931916e+01 1.2754953228e+01 4.9935713700e-03 0.0000e+00 0.0000e+00
       11 -1    0    0    0    0 +6.9190233647e-19 -1.9421508133e-19 -4.0245520480e-16 5.1100000000e-04 5.1099893000e-04 0.0000e+00 -1.0000e+00
       50  1    1    2    0    0 -4.4302167301e-02 -2.1166289615e-02 +1.1285656090e+01 1.1285763998e+01 4.9935713700e-03 0.0000e+00 0.0000e+00
       11  1    1    2    0    0 +2.2373845617e-02 +2.7321509152e-02 +1.4692758258e+00 1.4697002304e+00 5.1099893000e-04 0.0000e+00 -1.0000e+00
<vert_displacement>
259.44569346207550
</vert_displacement>
</event>
<event>
 4   1200 +8.6263000e+09 8.83879100e-03 7.81665300e-03            nan
       50 -1    0    0    0    0 +4.4687001922e-02 +1.3812899241e-02 +1.3362554278e+01 1.3362637071e+01 4.9935713700e-03 0.0000e+00 0.0000e+00
       11 -1    0    0    0    0 +3.0166343723e-19 +9.3245160427e-20 +9.0205068148e-17 5.1100000000e-04 5.1099893000e-04 0.0000e+00 1.0000e+00
       50  1    1    2    0    0 +3.8874153458e-02 +9.1329212002e-03 +1.3310328054e+01 1.3310388892e+01 4.9935713700e-03 0.0000e+00 0.0000e+00
       11  1    1    2    0    0 +5.8128484644e-03 +4.6799780408e-03 +5.2226223744e-02 5.2759178995e-02 5.1099893000e-04 0.0000e+00 1.0000e+00
<vert_displacement>
126.09740853434256
</vert_displacement>
</event>
<event>
 4   1200 +8.6263000e+09 2.75135400e-02 7.81665300e-03            nan
       50 -1    0    0    0    0 +1.2286590415e-01 -1.1783707211e-01 +4.5816511255e+01 4.5816827805e+01 4.9935713700e-03 0.0000e+00 0.0000e+00
       11 -1    0    0    0    0 +3.3122004822e-18 -3.1766339879e-18 +1.2351145887e-15 5.1100000000e-04 5.1099893000e-04 0.0000e+00 1.0000e+00
       50  1    1    2    0    0 +9.8557128809e-02 -1.0072623089e-01 +4.5088737188e+01 4.5088957689e+01 4.9935713700e-03 0.0000e+00 0.0000e+00
       11  1    1    2    0    0 +2.4308775342e-02 -1.7110841226e-02 +7.2777406714e-01 7.2838111684e-01 5.1099893000e-04 0.0000e+00 1.0000e+00
<vert_displacement>
482.81025389085158
</vert_displacement>
</event>
<event>
 4   1200 +8.6263000e+09 5.69821300e-03 7.81665300e-03            nan
       50 -1    0    0    0    0 +2.6790938992e-02 +1.8314458524e-03 +1.2639189084e+01 1.2639218597e+01 4.9935713700e-03 0.0000e+00 0.0000e+00
       11 -1    0    0    0    0 +4.8536888406e-18 +3.3180129666e-19 +2.2898298201e-15 5.1100000000e-04 5.1099893000e-04 0.0000e+00 1.0000e+00
       50  1    1    2    0    0 +2.6128530739e-02 +4.4978785881e-03 +1.2631813771e+01 1.2631842582e+01 4.9935713700e-03 0.0000e+00 0.0000e+00
       11  1    1    2    0    0 +6.6240825290e-04 -2.6664327357e-03 +7.3753129208e-03 7.8870152030e-03 5.1099893000e-04 0.0000e+00 1.0000e+00
<vert_displacement>
149.46244117982181
</vert_displacement>
</event>
<event>
 4   1200 +8.6263000e+09 3.35450000e-02 7.81665300e-03            nan
       50 -1    0    0    0    0 +1.8840985546e-03 -6.4943438702e-02 +3.4296732193e+01 3.4296794096e+01 4.9935713700e-03 0.0000e+00 0.0000e+00
       11 -1    0    0    0    0 +2.3709954837e-19 -8.1726404109e-18 +4.3159842640e-15 5.1100000000e-04 5.1099893000e-04 0.0000e+00 1.0000e+00
       50  1    1    2    0    0 -3.0748334687e-02 -5.6556076386e-02 +3.3183956062e+01 3.3184018878e+01 4.9935713700e-03 0.0000e+00 0.0000e+00
       11  1    1    2    0    0 +3.2632433242e-02 -8.3873623164e-03 +1.1127761315e+00 1.1132862181e+00 5.1099893000e-04 0.0000e+00 1.0000e+00
<vert_displacement>
181.18376757461158
</vert_displacement>
</event>
<event>
 4   1200 +8.6263000e+09 8.15096700e-03 7.81665300e-03            nan
       50 -1    0    0    0    0 -3.6146291797e-03 +5.3666430509e-03 +2.7954169598e+00 2.7954289083e+00 4.9935713700e-03 0.0000e+00 0.0000e+00
       11 -1    0    0    0    0 -1.1215438319e-19 +1.6651570915e-19 +8.6735941450e-17 5.1100000000e-04 5.1099893000e-04 0.0000e+00 1.0000e+00
       50  1    1    2    0    0 -2.7837199759e-04 -2.5548459505e-04 +2.7542020003e+00 2.7542065531e+00 4.9935713700e-03 0.0000e+00 0.0000e+00
       11  1    1    2    0    0 -3.3362571821e-03 +5.6221276460e-03 +4.1214959483e-02 4.1733355201e-02 5.1099893000e-04 0.0000e+00 1.0000e+00
<vert_displacement>
58.021093614891385
</vert_displacement>
</event>
<event>
 4   1200 +8.6263000e+09 1.29028100e-02 7.81665300e-03            nan
       50 -1    0    0    0    0 -1.7097740361e-02 +9.4434647583e-03 +1.4151151493e+01 1.4151165854e+01 4.9935713700e-03 0.0000e+00 0.0000e+00
       11 -1    0    0    0    0 +2.2636044297e-19 -1.2502394005e-19 -1.8734995694e-16 5.1100000000e-04 5.1099893000e-04 0.0000e+00 1.0000e+00
       50  1    1    2    0    0 -2.8034140729e-02 +5.0820504112e-03 +1.4011251030e+01 1.4011280888e+01 4.9935713700e-03 0.0000e+00 0.0000e+00
       11  1    1    2    0    0 +1.0936400368e-02 +4.3614143471e-03 +1.3990046249e-01 1.4039596616e-01 5.1099893000e-04 0.0000e+00 1.0000e+00
<vert_displacement>
429.78071382515475
</vert_displacement>
</event>
<event>
 4   1200 +8.6263000e+09 7.36552000e-03 7.81665300e-03            nan
       50 -1    0    0    0    0 -5.0048624427e-02 +5.8785803931e-04 +1.9086952339e+01 1.9087018618e+01 4.9935713700e-03 0.0000e+00 0.0000e+00
       11 -1    0    0    0    0 -1.7102994813e-18 +2.0088729934e-20 +6.5225378434e-16 5.1100000000e-04 5.1099893000e-04 0.0000e+00 1.0000e+00
       50  1    1    2    0    0 -4.8463319689e-02 +5.7865006049e-03 +1.9058228098e+01 1.9058291250e+01 4.9935713700e-03 0.0000e+00 0.0000e+00
       11  1    1    2    0    0 -1.5853047388e-03 -5.1986425656e-03 +2.8724240245e-02 2.9238368169e-02 5.1099893000e-04 0.0000e+00 1.0000e+00
<vert_displacement>
303.83527437256834
</vert_displacement>
</event>
<event>
 4   1200 +8.6263000e+09 1.04348900e-02 7.81665300e-03            nan
       50 -1    0    0    0    0 +1.5787179090e-02 -3.0170293933e-03 +5.8837457314e+00 5.8837698039e+00 4.9935713700e-03 0.0000e+00 0.0000e+00
       11 -1    0    0    0    0 -1.4336065986e-18 +2.7397125362e-19 -5.3429283705e-16 5.1100000000e-04 5.1099893000e-04 0.0000e+00 1.0000e+00
       50  1    1    2    0    0 +2.2383168162e-02 +3.1448565751e-03 +5.8003945410e+00 5.8004407301e+00 4.9935713700e-03 0.0000e+00 0.0000e+00
       11  1    1    2    0    0 -6.5959890722e-03 -6.1618859684e-03 +8.3351190368e-02 8.3840073749e-02 5.1099893000e-04 0.0000e+00 1.0000e+00
<vert_displacement>
458.80742197436740
</vert_displacement>
</event>
<event>
 4   1200 +8.6263000e+09 9.66027000e-03 7.81665300e-03            nan
       50 -1    0    0    0    0 -1.3212366437e-02 -1.1700088826e-03 +7.4666304281e+00 7.4666438794e+00 4.9935713700e-03 0.0000e+00 0.0000e+00
       11 -1    0    0    0    0 +4.5430471086e-19 +4.0230533242e-20 -2.5673866934e-16 5.1100000000e-04 5.1099893000e-04 0.0000e+00 1.0000e+00
       50  1    1    2    0    0 -2.0625819932e-02 -4.5711030276e-03 +7.3990863697e+00 7.3991182151e+00 4.9935713700e-03 0.0000e+00 0.0000e+00
       11  1    1    2    0    0 +7.4134534952e-03 +3.4010941450e-03 +6.7544058470e-02 6.8036664297e-02 5.1099893000e-04 0.0000e+00 1.0000e+00
<vert_displacement>
477.60272880112308
</vert_displacement>
</event>
<event>
 4   1200 +8.6263000e+09 1.16349000e-02 7.81665300e-03            nan
       50 -1    0    0    0    0 -2.5009441143e-02 +1.4361300862e-02 +1.0381360473e+01 1.0381401732e+01 4.9935713700e-03 0.0000e+00 0.0000e+00
       11 -1    0    0    0    0 -1.0865548228e-18 +6.2393800098e-19 +4.5102636339e-16 5.1100000000e-04 5.1099893000e-04 0.0000e+00 1.0000e+00
       50  1    1    2    0    0 -1.5856501096e-02 +1.9814293999e-02 +1.0272159828e+01 1.0272192390e+01 4.9935713700e-03 0.0000e+00 0.0000e+00
       11  1    1    2    0    0 -9.1529400465e-03 -5.4529931371e-03 +1.0920064548e-01 1.0972034242e-01 5.1099893000e-04 0.0000e+00 1.0000e+00
<vert_displacement>
437.90250114721147
</vert_displacement>
</event>
<event>
 4   1200 +8.6263000e+09 1.02037600e-02 7.81665300e-03            nan
       50 -1    0    0    0    0 -1.6623716447e-03 -2.4622614331e-02 +4.0961598653e+01 4.0961606391e+01 4.9935713700e-03 0.0000e+00 0.0000e+00
       11 -1    0    0    0    0 +2.1514673085e-19 +3.1866971475e-18 -5.3013139804e-15 5.1100000000e-04 5.1099893000e-04 0.0000e+00 1.0000e+00
       50  1    1    2    0    0 -7.5421127405e-03 -1.7899684261e-02 +4.0883977778e+01 4.0883982697e+01 4.9935713700e-03 0.0000e+00 0.0000e+00
       11  1    1    2    0    0 +5.8797410958e-03 -6.7229300700e-03 +7.7620874278e-02 7.8134693880e-02 5.1099893000e-04 0.0000e+00 1.0000e+00
<vert_displacement>
378.49319890086690
</vert_displacement>
</event>
<event>
 4   1200 +8.6263000e+09 2.67532300e-02 7.81665300e-03            nan
       50 -1    0    0    0    0 +2.2996020676e-03 +7.1478170195e-03 +8.2460470692e+00 8.2460519998e+00 4.9935713700e-03 0.0000e+00 0.0000e+00
       11 -1    0    0    0    0 -6.3857349423e-20 -1.9848679711e-19 -2.2898340390e-16 5.1100000000e-04 5.1099893000e-04 0.0000e+00 1.0000e+00
       50  1    1    2    0    0 -1.0314861120e-02 -1.6666588241e-02 +7.5029313627e+00 7.5029586258e+00 4.9935713700e-03 0.0000e+00 0.0000e+00
       11  1    1    2    0    0 +1.2614463187e-02 +2.3814405261e-02 +7.4311570654e-01 7.4360437399e-01 5.1099893000e-04 0.0000e+00 1.0000e+00
<vert_displacement>
461.44558248012788
</vert_displacement>
</event>
<event>
 4   1200 +8.6263000e+09 1.13704600e-02 7.81665300e-03            nan
       50 -1    0    0    0    0 -8.7370789641e-05 +3.4389569341e-03 +2.0420389356e+00 2.0420479388e+00 4.9935713700e-03 0.0000e+00 0.0000e+00
       11 -1    0    0    0    0 -7.2737430884e-21 +2.8629807896e-19 +1.7000265942e-16 5.1100000000e-04 5.1099893000e-04 0.0000e+00 1.0000e+00
       50  1    1    2    0    0 +8.4420042291e-03 +8.8857401999e-03 +1.9341301619e+00 1.9341754426e+00 4.9935713700e-03 0.0000e+00 0.0000e+00
       11  1    1    2    0    0 -8.5293750188e-03 -5.4467832658e-03 +1.0790877374e-01 1.0838349624e-01 5.1099893000e-04 0.0000e+00 1.0000e+00
<vert_displacement>
104.99695686130897
</vert_displacement>
</event>
<event>
 4   1200 +8.6263000e+09 7.62831200e-03 7.81665300e-03            nan
       50 -1    0    0    0    0 -4.5898933118e-03 +2.7343002882e-03 +1.8783019874e+00 1.8783162234e+00 4.9935713700e-03 0.0000e+00 0.0000e+00
       11 -1    0    0    0    0 -3.3064371700e-19 +1.9697172663e-19 +1.3530788377e-16 5.1100000000e-04 5.1099893000e-04 0.0000e+00 1.0000e+00
       50  1    1    2    0    0 +7.8199290936e-04 +4.9798857027e-03 +1.8451709742e+00 1.8451846169e+00 4.9935713700e-03 0.0000e+00 0.0000e+00
       11  1    1    2    0    0 -5.3718862212e-03 -2.2455854145e-03 +3.3131013163e-02 3.3642606447e-02 5.1099893000e-04 0.0000e+00 1.0000e+00
<vert_displacement>
204.13284623935880
</vert_displacement>
</event>
<event>
 4   1200 +8.6263000e+09 1.75546200e-02 7.81665300e-03            nan
       50 -1    0    0    0    0 -2.4177005912e-02 +4.6530420615e-03 +4.2870884577e+01 4.2870891938e+01 4.9935713700e-03 0.0000e+00 0.0000e+00
       11 -1    0    0    0    0 +9.3916411341e-19 -1.8074901989e-19 -1.6653342623e-15 5.1100000000e-04 5.1099893000e-04 0.0000e+00 1.0000e+00
       50  1    1    2    0    0 -3.9928823465e-02 -8.6617747043e-04 +4.2591924700e+01 4.2591943718e+01 4.9935713700e-03 0.0000e+00 0.0000e+00
       11  1    1    2    0    0 +1.5751817554e-02 +5.5192195319e-03 +2.7895987678e-01 2.7945921977e-01 5.1099893000e-04 0.0000e+00 1.0000e+00
<vert_displacement>
273.96802651841051
</vert_displacement>
</event>
<event>
 4   1200 +8.6263000e+09 3.64115500e-02 7.81665300e-03            nan
       50 -1    0    0    0    0 +8.8432226600e-03 -1.3446565524e-02 +7.0603254518e+00 7.0603455605e+00 4.9935713700e-03 0.0000e+00 0.0000e+00
       11 -1    0    0    0    0 -1.8251318879e-19 +2.7752049750e-19 -1.4571639341e-16 5.1100000000e-04 5.1099893000e-04 0.0000e+00 1.0000e+00
       50  1    1    2    0    0 +4.0015537000e-02 -2.4213904432e-02 +5.3915655888e+00 5.3917707658e+00 4.9935713700e-03 0.0000e+00 0.0000e+00
       11  1    1    2    0    0 -3.1172314340e-02 +1.0767338907e-02 +1.6687598630e+00 1.6690857948e+00 5.1099893000e-04 0.0000e+00 1.0000e+00
<vert_displacement>
5.7960582604681656
</vert_displacement>
</event>
<event>
 4   1200 +8.6263000e+09 7.47241500e-03 7.81665300e-03            nan
       50 -1    0    0    0    0 +1.7614670207e-02 -1.0477843225e-02 +5.8785494172e+00 5.8785872664e+00 4.9935713700e-03 0.0000e+00 0.0000e+00
       11 -1    0    0    0    0 +1.0811732558e-18 -6.4312097476e-19 +3.6082029003e-16 5.1100000000e-04 5.1099893000e-04 0.0000e+00 1.0000e+00
       50  1    1    2    0    0 +1.7050899933e-02 -4.8849222132e-03 +5.8481643906e+00 5.8481934194e+00 4.9935713700e-03 0.0000e+00 0.0000e+00
       11  1    1    2    0    0 +5.6377027358e-04 -5.5929210118e-03 +3.0385026652e-02 3.0904846981e-02 5.1099893000e-04 0.0000e+00 1.0000e+00
<vert_displacement>
360.65723151347993
</vert_displacement>
</event>
<event>
 4   1200 +8.6263000e+09 5.83754100e-02 7.81665300e-03            nan
       50 -1    0    0    0    0 +4.1425906240e-02 -2.9763503063e-02 +2.6446028914e+01 2.6446078579e+01 4.9935713700e-03 0.0000e+00 0.0000e+00
       11 -1    0    0    0    0 -9.5649710723e-19 +6.8721983815e-19 -6.1062152769e-16 5.1100000000e-04 5.1099893000e-04 0.0000e+00 1.0000e+00
       50  1    1    2    0    0 +7.7045554916e-02 +1.5150627604e-02 +2.2566345982e+01 2.2566483144e+01 4.9935713700e-03 0.0000e+00 0.0000e+00
       11  1    1    2    0    0 -3.5619648676e-02 -4.4914130668e-02 +3.8796829318e+00 3.8801064355e+00 5.1099893000e-04 0.0000e+00 1.0000e+00
<vert_displacement>
131.20459584442045
</vert_displacement>
</event>
<event>
 4   1200 +8.6263000e+09 2.18968100e-02 7.81665300e-03            nan
       50 -1    0    0    0    0 +3.8966751933e-02 +2.3300823024e-02 +2.0995449323e+01 2.0995499007e+01 4.9935713700e-03 0.0000e+00 0.0000e+00
       11 -1    0    0    0    0 -2.3438491284e-18 -1.4015439067e-18 -1.2628757377e-15 5.1100000000e-04 5.1099893000e-04 0.0000e+00 1.0000e+00
       50  1    1    2    0    0 +4.3690287036e-02 +4.3376350634e-02 +2.0540801091e+01 2.0540893962e+01 4.9935713700e-03 0.0000e+00 0.0000e+00
       11  1    1    2    0    0 -4.7235351023e-03 -2.0075527610e-02 +4.5464823158e-01 4.5511604475e-01 5.1099893000e-04 0.0000e+00 1.0000e+00
<vert_displacement>
83.362252716078416
</vert_displacement>
</event>
<event>
 4   1200 +8.6263000e+09 1.70575900e-02 7.81665300e-03            nan
       50 -1    0    0    0    0 -1.1904000317e-02 +9.1075079895e-03 +4.3196205009e+00 4.3196493908e+00 4.9935713700e-03 0.0000e+00 0.0000e+00
       11 -1    0    0    0    0 -1.0899581536e-18 +8.3390476543e-19 +3.9551457157e-16 5.1100000000e-04 5.1099893000e-04 0.0000e+00 1.0000e+00
       50  1    1    2    0    0 -1.0100960645e-03 -4.2649722239e-03 +4.0413081266e+00 4.0413135884e+00 4.9935713700e-03 0.0000e+00 0.0000e+00
       11  1    1    2    0    0 -1.0893904252e-02 +1.3372480213e-02 +2.7831237432e-01 2.7884680238e-01 5.1099893000e-04 0.0000e+00 1.0000e+00
<vert_displacement>
225.44139735217985
</vert_displacement>
</event>
<event>
 4   1200 +8.6263000e+09 4.49490900e-02 7.81665300e-03            nan
       50 -1    0    0    0    0 -4.7610255891e-02 -1.4116268535e-02 +1.6104259782e+01 1.6104337120e+01 4.9935713700e-03 0.0000e+00 0.0000e+00
       11 -1    0    0    0    0 +3.2001661623e-18 +9.4883768339e-19 -1.0824623027e-15 5.1100000000e-04 5.1099893000e-04 0.0000e+00 1.0000e+00
       50  1    1    2    0    0 -8.1089751426e-02 -3.1595532360e-02 +1.3829895630e+01 1.3830170349e+01 4.9935713700e-03 0.0000e+00 0.0000e+00
       11  1    1    2    0    0 +3.3479495536e-02 +1.7479263825e-02 +2.2743641529e+00 2.2746777711e+00 5.1099893000e-04 0.0000e+00 1.0000e+00
<vert_displacement>
115.66212627363598
</vert_displacement>
</event>
<event>
 4   1200 +8.6263000e+09 1.14014200e-02 7.81665300e-03            nan
       50 -1    0    0    0    0 +1.6887269148e-02 +9.6490158235e-03 +1.5610744402e+01 1.5610757317e+01 4.9935713700e-03 0.0000e+00 0.0000e+00
       11 -1    0    0    0    0 +3.7531483117e-19 +2.1444667655e-19 +3.4694442592e-16 5.1100000000e-04 5.1099893000e-04 0.0000e+00 1.0000e+00
       50  1    1    2    0    0 +2.5093185933e-02 +3.5959197352e-03 +1.5507253635e+01 1.5507275159e+01 4.9935713700e-03 0.0000e+00 0.0000e+00
       11  1    1    2    0    0 -8.2059167854e-03 +6.0530960883e-03 +1.0349076684e-01 1.0399315835e-01 5.1099893000e-04 0.0000e+00 1.0000e+00
<vert_displacement>
382.48604419968427
</vert_displacement>
</event>
<event>
 4   1200 +8.6263000e+09 8.19538800e-03 7.81665300e-03            nan
       50 -1    0    0    0    0 +7.2748537994e-02 +8.7183537824e-02 +3.6292924564e+01 3.6293102535e+01 4.9935713700e-03 0.0000e+00 0.0000e+00
       11 -1    0    0    0    0 -4.9237238521e-18 -5.9007050387e-18 -2.4563564199e-15 5.1100000000e-04 5.1099893000e-04 0.0000e+00 -1.0000e+00
       50  1    1    2    0    0 +6.7214152151e-02 +9.0621133008e-02 +3.6251559832e+01 3.6251735754e+01 4.9935713700e-03 0.0000e+00 0.0000e+00
       11  1    1    2    0    0 +5.5343858432e-03 -3.4375951841e-03 +4.1364731124e-02 4.1877781557e-02 5.1099893000e-04 0.0000e+00 -1.0000e+00
<vert_displacement>
396.42662116578839
</vert_displacement>
</event>
<event>
 4   1200 +8.6263000e+09 1.53873900e-02 7.81665300e-03            nan
       50 -1    0    0    0    0 -1.3992482626e-02 +2.7733617494e-02 +1.9561916627e+01 1.9561941928e+01 4.9935713700e-03 0.0000e+00 0.0000e+00
       11 -1    0    0    0    0 -4.1691964412e-19 +8.2635013705e-19 +5.8286635305e-16 5.1100000000e-04 5.1099893000e-04 0.0000e+00 -1.0000e+00
       50  1    1    2    0    0 -2.8364232750e-02 +2.6457558623e-02 +1.9352379418e+01 1.9352418934e+01 4.9935713700e-03 0.0000e+00 0.0000e+00
       11  1    1    2    0    0 +1.4371750124e-02 +1.2760588709e-03 +2.0953720923e-01 2.1003399416e-01 5.1099893000e-04 0.0000e+00 -1.0000e+00
<vert_displacement>
354.58642247305579
</vert_displacement>
</event>
<event>
 4   1200 +8.6263000e+09 3.10007000e-02 7.81665300e-03            nan
       50 -1    0    0    0    0 +1.2765795352e-02 +1.5687706098e-02 +6.0691744567e+00 6.0692102114e+00 4.9935713700e-03 0.0000e+00 0.0000e+00
       11 -1    0    0    0    0 -1.7660031041e-18 -2.1702163400e-18 -8.3960150029e-16 5.1100000000e-04 5.1099893000e-04 0.0000e+00 1.0000e+00
       50  1    1    2    0    0 +7.4725692264e-03 -1.7677387283e-02 +4.9436353384e+00 4.9436751131e+00 4.9935713700e-03 0.0000e+00 0.0000e+00
       11  1    1    2    0    0 +5.2932261253e-03 +3.3365093382e-02 +1.1255391182e+00 1.1260460983e+00 5.1099893000e-04 0.0000e+00 1.0000e+00
<vert_displacement>
355.87800462244400
</vert_displacement>
</event>
<event>
 4   1200 +8.6263000e+09 7.57868200e-03 7.81665300e-03            nan
       50 -1    0    0    0    0 +8.8607564256e-03 -2.0702195832e-02 +8.2598966711e+00 8.2599288766e+00 4.9935713700e-03 0.0000e+00 0.0000e+00
       11 -1    0    0    0    0 +7.3691943709e-19 -1.7217322954e-18 +6.8694794360e-16 5.1100000000e-04 5.1099893000e-04 0.0000e+00 1.0000e+00
       50  1    1    2    0    0 +5.3062602370e-03 -1.6137948153e-02 +8.2279850220e+00 8.2280040744e+00 4.9935713700e-03 0.0000e+00 0.0000e+00
       11  1    1    2    0    0 +3.5544961886e-03 -4.5642476796e-03 +3.1911649059e-02 3.2435802219e-02 5.1099893000e-04 0.0000e+00 1.0000e+00
<vert_displacement>
35.410308556728616
</vert_displacement>
</event>
<event>
 4   1200 +8.6263000e+09 2.99968600e-02 7.81665300e-03            nan
       50 -1    0    0    0    0 -7.3317023760e-02 -4.0326712921e-02 +2.8403941715e+01 2.8404065405e+01 4.9935713700e-03 0.0000e+00 0.0000e+00
       11 -1    0    0    0    0 -6.2329525489e-18 -3.4283236716e-18 +2.4147246006e-15 5.1100000000e-04 5.1099893000e-04 0.0000e+00 1.0000e+00
       50  1    1    2    0    0 -7.4447061676e-02 -9.6912944123e-03 +2.7520411817e+01 2.7520514672e+01 4.9935713700e-03 0.0000e+00 0.0000e+00
       11  1    1    2    0    0 +1.1300379163e-03 -3.0635418509e-02 +8.8352989821e-01 8.8406173314e-01 5.1099893000e-04 0.0000e+00 1.0000e+00
<vert_displacement>
451.59786201378199
</vert_displacement>
</event>
<event>
 4   1200 +8.6263000e+09 8.27300100e-03 7.81665300e-03            nan
       50 -1    0    0    0    0 -5.8142028777e-03 -1.3681822541e-02 +9.7282728329e+00 9.7282854730e+00 4.9935713700e-03 0.0000e+00 0.0000e+00
       11 -1    0    0    0    0 +3.4420904007e-19 +8.0998326036e-19 -5.7592752159e-16 5.1100000000e-04 5.1099893000e-04 0.0000e+00 1.0000e+00
       50  1    1    2    0    0 -1.0134247102e-03 -1.8171852228e-02 +9.6855084312e+00 9.6855268184e+00 4.9935713700e-03 0.0000e+00 0.0000e+00
       11  1    1    2    0    0 -4.8007781675e-03 +4.4900296872e-03 +4.2764401712e-02 4.3269654625e-02 5.1099893000e-04 0.0000e+00 1.0000e+00
<vert_displacement>
410.22297952853057
</vert_displacement>
</event>
<event>
 4   1200 +8.6263000e+09 5.21966100e-02 7.81665300e-03            nan
       50 -1    0    0    0    0 +1.1136606608e-02 -9.7705632308e-03 +1.3203154793e+01 1.3203164049e+01 4.9935713700e-03 0.0000e+00 0.0000e+00
       11 -1    0    0    0    0 +8.5451166048e-19 -7.4969517234e-19 +1.0130778722e-15 5.1100000000e-04 5.1099893000e-04 0.0000e+00 1.0000e+00
       50  1    1    2    0    0 -2.4410088065e-02 -4.7632435091e-02 +9.5477131300e+00 9.5478644549e+00 4.9935713700e-03 0.0000e+00 0.0000e+00
       11  1    1    2    0    0 +3.5546694672e-02 +3.7861871860e-02 +3.6554416629e+00 3.6558105942e+00 5.1099893000e-04 0.0000e+00 1.0000e+00
<vert_displacement>
314.38745978766218
</vert_displacement>
</event>
<event>
 4   1200 +8.6263000e+09 1.09144700e-02 7.81665300e-03            nan
       50 -1    0    0    0    0 +2.2298474717e-02 +3.3152295524e-02 +2.0469142078e+01 2.0469181680e+01 4.9935713700e-03 0.0000e+00 0.0000e+00
       11 -1    0    0    0    0 +6.1983884354e-19 +9.2154646355e-19 +5.6898821623e-16 5.1100000000e-04 5.1099893000e-04 0.0000e+00 1.0000e+00
       50  1    1    2    0    0 +2.3724234565e-02 +2.3418030079e-02 +2.0376572279e+01 2.0376600159e+01 4.9935713700e-03 0.0000e+00 0.0000e+00
       11  1    1    2    0    0 -1.4257598472e-03 +9.7342654451e-03 +9.2569798766e-02 9.3092521065e-02 5.1099893000e-04 0.0000e+00 1.0000e+00
<vert_displacement>
227.18793218511658
</vert_displacement>
</event>
<event>
 4   1200 +8.6263000e+09 2.22529500e-02 7.81665300e-03            nan
       50 -1    0    0    0    0 -6.4517610353e-02 +7.7815357277e-02 +3.7954619582e+01 3.7954754515e+01 4.9935713700e-03 0.0000e+00 0.0000e+00
       11 -1    0    0    0    0 -3.2790431620e-18 +3.9548878792e-18 +1.9290056641e-15 5.1100000000e-04 5.1099893000e-04 0.0000e+00 1.0000e+00
       50  1    1    2    0    0 -6.8120381575e-02 +9.8095639460e-02 +3.7488707303e+01 3.7488897868e+01 4.9935713700e-03 0.0000e+00 0.0000e+00
       11  1    1    2    0    0 +3.6027712216e-03 -2.0280282183e-02 +4.6591227843e-01 4.6636764694e-01 5.1099893000e-04 0.0000e+00 1.0000e+00
<vert_displacement>
31.736139999982182
</vert_displacement>
</event>
<event>
 4   1200 +8.6263000e+09 3.32160300e-02 7.81665300e-03            nan
       50 -1    0    0    0    0 +1.8874076056e-02 +1.0796161849e-02 +8.1494893481e+00 8.1495198851e+00 4.9935713700e-03 0.0000e+00 0.0000e+00
       11 -1    0    0    0    0 +8.5172594205e-19 +4.8719582849e-19 +3.6776006791e-16 5.1100000000e-04 5.1099893000e-04 0.0000e+00 1.0000e+00
       50  1    1    2    0    0 -1.3255575409e-02 -5.7952366758e-03 +6.9031628623e+00 6.9031798278e+00 4.9935713700e-03 0.0000e+00 0.0000e+00
       11  1    1    2    0    0 +3.2129651466e-02 +1.6591398525e-02 +1.2463264858e+00 1.2468510574e+00 5.1099893000e-04 0.0000e+00 1.0000e+00
<vert_displacement>
415.44859463363946
</vert_displacement>
</event>
<event>
 4   1200 +8.6263000e+09 1.22606400e-02 7.81665300e-03            nan
       50 -1    0    0    0    0 -6.2533445426e-04 +1.2888966302e-03 +1.4635990797e+00 1.4636082994e+00 4.9935713700e-03 0.0000e+00 0.0000e+00
       11 -1    0    0    0    0 +8.8940900842e-21 -1.8331890494e-20 -2.0816671740e-17 5.1100000000e-04 5.1099893000e-04 0.0000e+00 1.0000e+00
       50  1    1    2    0    0 -1.0701306545e-02 -3.5940622160e-03 +1.3281196130e+00 1.3281769752e+00 4.9935713700e-03 0.0000e+00 0.0000e+00
       11  1    1    2    0    0 +1.0075972091e-02 +4.8829588462e-03 +1.3547946673e-01 1.3594232426e-01 5.1099893000e-04 0.0000e+00 1.0000e+00
<vert_displacement>
465.37603379225169
</vert_displacement>
</event>
<event>
 4   1200 +8.6263000e+09 1.28575800e-02 7.81665300e-03            nan
       50 -1    0    0    0    0 -1.3877479666e-02 +2.4714369345e-02 +1.4429190644e+01 1.4429219347e+01 4.9935713700e-03 0.0000e+00 0.0000e+00
       11 -1    0    0    0    0 -1.2946720350e-18 +2.3056782373e-18 +1.3461428202e-15 5.1100000000e-04 5.1099893000e-04 0.0000e+00 1.0000e+00
       50  1    1    2    0    0 -2.6559908664e-03 +2.8652420312e-02 +1.4290494412e+01 1.4290524255e+01 4.9935713700e-03 0.0000e+00 0.0000e+00
       11  1    1    2    0    0 -1.1221488800e-02 -3.9380509665e-03 +1.3869623214e-01 1.3920609178e-01 5.1099893000e-04 0.0000e+00 1.0000e+00
<vert_displacement>
283.19243589830154
</vert_displacement>
</event>
<event>
 4   1200 +8.6263000e+09 2.45676600e-02 7.81665300e-03            nan
       50 -1    0    0    0    0 +1.9344768921e-02 +3.2913273556e-02 +1.2601160664e+01 1.2601219485e+01 4.9935713700e-03 0.0000e+00 0.0000e+00
       11 -1    0    0    0    0 -1.5978371359e-19 -2.7185670176e-19 -1.0408293088e-16 5.1100000000e-04 5.1099893000e-04 0.0000e+00 1.0000e+00
       50  1    1    2    0    0 +3.9584337208e-02 +1.9905397335e-02 +1.2006879045e+01 1.2006961834e+01 4.9935713700e-03 0.0000e+00 0.0000e+00
       11  1    1    2    0    0 -2.0239568287e-02 +1.3007876221e-02 +5.9428161859e-01 5.9476865106e-01 5.1099893000e-04 0.0000e+00 1.0000e+00
<vert_displacement>
20.464199326997694
</vert_displacement>
</event>
<event>
 4   1200 +8.6263000e+09 8.89611000e-03 7.81665300e-03            nan
       50 -1    0    0    0    0 +1.6549655828e-02 +1.2896119616e-02 +5.4014945374e+00 5.4015375936e+00 4.9935713700e-03 0.0000e+00 0.0000e+00
       11 -1    0    0    0    0 -9.3543727740e-19 -7.2892821146e-19 -3.0530902857e-16 5.1100000000e-04 5.1099893000e-04 0.0000e+00 1.0000e+00
       50  1    1    2    0    0 +2.3303858871e-02 +1.0250046434e-02 +5.3479027494e+00 5.3479656773e+00 4.9935713700e-03 0.0000e+00 0.0000e+00
       11  1    1    2    0    0 -6.7542030432e-03 +2.6460731823e-03 +5.3591788077e-02 5.4082916260e-02 5.1099893000e-04 0.0000e+00 1.0000e+00
<vert_displacement>
259.81544751684203
</vert_displacement>
</event>
<event>
 4   1200 +8.6263000e+09 3.85465400e-02 7.81665300e-03            nan
       50 -1    0    0    0    0 -4.4280936606e-03 -6.6088597488e-02 +2.8644243409e+01 2.8644320427e+01 4.9935713700e-03 0.0000e+00 0.0000e+00
       11 -1    0    0    0    0 -4.1190755070e-19 -6.1476550423e-18 +2.6645281353e-15 5.1100000000e-04 5.1099893000e-04 0.0000e+00 -1.0000e+00
       50  1    1    2    0    0 -6.6762256500e-04 -1.0066543069e-01 +2.7135116162e+01 2.7135303352e+01 4.9935713700e-03 0.0000e+00 0.0000e+00
       11  1    1    2    0    0 -3.7604710956e-03 +3.4576833204e-02 +1.5091272475e+00 1.5095280748e+00 5.1099893000e-04 0.0000e+00 -1.0000e+00
<vert_displacement>
198.97926898212839
</vert_displacement>
</event>
<event>
 4   1200 +8.6263000e+09 1.38382700e-02 7.81665300e-03            nan
       50 -1    0    0    0    0 +5.7455300955e-03 +5.1443635032e-03 +2.0841079529e+00 2.0841282040e+00 4.9935713700e-03 0.0000e+00 0.0000e+00
       11 -1    0    0    0    0 -6.4082872967e-19 -5.7377750598e-19 -2.3245135431e-16 5.1100000000e-04 5.1099893000e-04 0.0000e+00 1.0000e+00
       50  1    1    2    0    0 +4.6977013097e-03 +1.7597693319e-02 +1.9056006223e+00 1.9056942081e+00 4.9935713700e-03 0.0000e+00 0.0000e+00
       11  1    1    2    0    0 +1.0478287859e-03 -1.2453329815e-02 +1.7850733058e-01 1.7894499590e-01 5.1099893000e-04 0.0000e+00 1.0000e+00
<vert_displacement>
44.744667533027076
</vert_displacement>
</event>
<event>
 4   1200 +8.6263000e+09 5.03539800e-03 7.81665300e-03            nan
       50 -1    0    0    0    0 -1.2684787026e-02 +1.1764299206e-02 +6.1656208481e+00 6.1656471421e+00 4.9935713700e-03 0.0000e+00 0.0000e+00
       11 -1    0    0    0    0 +1.4703886024e-18 -1.3636879699e-18 -7.1470325857e-16 5.1100000000e-04 5.1099893000e-04 0.0000e+00 -1.0000e+00
       50  1    1    2    0    0 -1.2914641421e-02 +1.1158322843e-02 +6.1652110181e+00 6.1652366645e+00 4.9935713700e-03 0.0000e+00 0.0000e+00
       11  1    1    2    0    0 +2.2985439562e-04 +6.0597636353e-04 +4.0983001503e-04 9.2147758737e-04 5.1099893000e-04 0.0000e+00 -1.0000e+00
<vert_displacement>
75.892084082427999
</vert_displacement>
</event>
<event>
 4   1200 +8.6263000e+09 3.28633800e-02 7.81665300e-03            nan
       50 -1    0    0    0    0 -9.8052340477e-03 +5.9854002867e-03 +4.7404937684e+00 4.7405103176e+00 4.9935713700e-03 0.0000e+00 0.0000e+00
       11 -1    0    0    0    0 -9.0419875768e-19 +5.5194924232e-19 +4.3714903238e-16 5.1100000000e-04 5.1099893000e-04 0.0000e+00 1.0000e+00
       50  1    1    2    0    0 -1.7670668926e-02 +3.4612118957e-02 +3.2138780707e+00 3.2141168990e+00 4.9935713700e-03 0.0000e+00 0.0000e+00
       11  1    1    2    0    0 +7.8654348788e-03 -2.8626718670e-02 +1.5266156977e+00 1.5269044186e+00 5.1099893000e-04 0.0000e+00 1.0000e+00
<vert_displacement>
249.98106446622069
</vert_displacement>
</event>
<event>
 4   1200 +8.6263000e+09 6.78111400e-03 7.81665300e-03            nan
       50 -1    0    0    0    0 +2.4038551478e-02 -2.6093395561e-03 +1.0510089875e+01 1.0510118875e+01 4.9935713700e-03 0.0000e+00 0.0000e+00
       11 -1    0    0    0    0 -8.8874872209e-19 +9.6472002404e-20 -3.8857703028e-16 5.1100000000e-04 5.1099893000e-04 0.0000e+00 1.0000e+00
       50  1    1    2    0    0 +1.9415309944e-02 -2.9320518961e-03 +1.0489464033e+01 1.0489483599e+01 4.9935713700e-03 0.0000e+00 0.0000e+00
       11  1    1    2    0    0 +4.6232415340e-03 +3.2271234006e-04 +2.0625842145e-02 2.1146276022e-02 5.1099893000e-04 0.0000e+00 1.0000e+00
<vert_displacement>
118.57397941579831
</vert_displacement>
</event>
<event>
 4   1200 +8.6263000e+09 1.86197100e-02 7.81665300e-03            nan
       50 -1    0    0    0    0 -1.5709512909e-02 +6.3670741050e-02 +2.9005356733e+01 2.9005431300e+01 4.9935713700e-03 0.0000e+00 0.0000e+00
       11 -1    0    0    0    0 +3.6078201385e-19 -1.4622514595e-18 -6.6613211215e-16 5.1100000000e-04 5.1099893000e-04 0.0000e+00 1.0000e+00
       50  1    1    2    0    0 -2.8473932755e-02 +5.0546340647e-02 +2.8687044007e+01 2.8687103104e+01 4.9935713700e-03 0.0000e+00 0.0000e+00
       11  1    1    2    0    0 +1.2764419846e-02 +1.3124400403e-02 +3.1831272641e-01 3.1883919649e-01 5.1099893000e-04 0.0000e+00 1.0000e+00
<vert_displacement>
11.098078878767415
</vert_displacement>
</event>
<event>
 4   1200 +8.6263000e+09 5.13076100e-03 7.81665300e-03            nan
       50 -1    0    0    0    0 +5.5969783475e-03 -2.1482498124e-02 +8.6412250990e+00 8.6412550577e+00 4.9935713700e-03 0.0000e+00 0.0000e+00
       11 -1    0    0    0    0 +1.1056106908e-18 -4.2435896865e-18 +1.7069622674e-15 5.1100000000e-04 5.1099893000e-04 0.0000e+00 1.0000e+00
       50  1    1    2    0    0 +6.7726176881e-03 -2.1548042360e-02 +8.6398648251e+00 8.6398957933e+00 4.9935713700e-03 0.0000e+00 0.0000e+00
       11  1    1    2    0    0 -1.1756393406e-03 +6.5544235519e-05 +1.3602739005e-03 1.8702643923e-03 5.1099893000e-04 0.0000e+00 1.0000e+00
<vert_displacement>
485.04971589920183
</vert_displacement>
</event>
<event>
 4   1200 +8.6263000e+09 1.04269400e-02 7.81665300e-03            nan
       50 -1    0    0    0    0 -7.5563660664e-04 +1.0065998764e-04 +1.8097168640e+00 1.8097239140e+00 4.9935713700e-03 0.0000e+00 0.0000e+00
       11 -1    0    0    0    0 +6.5189114583e-20 -8.6839830290e-21 -1.5612509899e-16 5.1100000000e-04 5.1099893000e-04 0.0000e+00 1.0000e+00
       50  1    1    2    0    0 +2.9987433522e-03 +8.4600090378e-03 +1.7235557373e+00 1.7235863423e+00 4.9935713700e-03 0.0000e+00 0.0000e+00
       11  1    1    2    0    0 -3.7543799588e-03 -8.3593490502e-03 +8.6161126733e-02 8.6648571628e-02 5.1099893000e-04 0.0000e+00 1.0000e+00
<vert_displacement>
491.12225955784692
</vert_displacement>
</event>
<event>
 4   1200 +8.6263000e+09 1.15379400e-02 7.81665300e-03            nan
       50 -1    0    0    0    0 +8.4591135782e-04 -1.5414606568e-03 +3.3820280516e+00 3.3820321952e+00 4.9935713700e-03 0.0000e+00 0.0000e+00
       11 -1    0    0    0    0 -5.2934361448e-20 +9.6459557861e-20 -2.1163623547e-16 5.1100000000e-04 5.1099893000e-04 0.0000e+00 -1.0000e+00
       50  1    1    2    0    0 -4.4512216653e-03 +7.4760291155e-03 +3.2725910487e+00 3.2726064249e+00 4.9935713700e-03 0.0000e+00 0.0000e+00
       11  1    1    2    0    0 +5.2971330232e-03 -9.0174897723e-03 +1.0943700290e-01 1.0993677030e-01 5.1099893000e-04 0.0000e+00 -1.0000e+00
<vert_displacement>
486.59161348925471
</vert_displacement>
</event>
<event>
 4   1200 +8.6263000e+09 1.19217000e-02 7.81665300e-03            nan
       50 -1    0    0    0    0 +3.1928076010e-02 +3.1065133221e-02 +1.5538111830e+01 1.5538176490e+01 4.9935713700e-03 0.0000e+00 0.0000e+00
       11 -1    0    0    0    0 -1.9676237435e-18 -1.9144433790e-18 -9.5756342343e-16 5.1100000000e-04 5.1099893000e-04 0.0000e+00 1.0000e+00
       50  1    1    2    0    0 +3.6253506816e-02 +4.0651020299e-02 +1.5422550703e+01 1.5422647696e+01 4.9935713700e-03 0.0000e+00 0.0000e+00
       11  1    1    2    0    0 -4.3254308068e-03 -9.5858870777e-03 +1.1556112700e-01 1.1603979394e-01 5.1099893000e-04 0.0000e+00 1.0000e+00
<vert_displacement>
440.89194531321192
</vert_displacement>
</event>
<event>
 4   1200 +8.6263000e+09 3.28813700e-02 7.81665300e-03            nan
       50 -1    0    0    0    0 +3.9740382173e-02 +2.7249730270e-02 +1.5361096789e+01 1.5361173176e+01 4.9935713700e-03 0.0000e+00 0.0000e+00
       11 -1    0    0    0    0 -6.4624980478e-19 -4.4312942916e-19 -2.4979895155e-16 5.1100000000e-04 5.1099893000e-04 0.0000e+00 1.0000e+00
       50  1    1    2    0    0 +6.8550614589e-02 +1.8078266371e-02 +1.4246493762e+01 1.4246671030e+01 4.9935713700e-03 0.0000e+00 0.0000e+00
       11  1    1    2    0    0 -2.8810232416e-02 +9.1714638985e-03 +1.1146030273e+00 1.1150131456e+00 5.1099893000e-04 0.0000e+00 1.0000e+00
<vert_displacement>
64.836925374102620
</vert_displacement>
</event>
<event>
 4   1200 +8.6263000e+09 1.22384900e-02 7.81665300e-03            nan
       50 -1    0    0    0    0 +8.3563860741e-03 -1.1039946740e-02 +4.2871176514e+00 4.2871429183e+00 4.9935713700e-03 0.0000e+00 0.0000e+00
       11 -1    0    0    0    0 -1.6230142123e-19 +2.1442272178e-19 -8.3266292586e-17 5.1100000000e-04 5.1099893000e-04 0.0000e+00 1.0000e+00
       50  1    1    2    0    0 +1.8061898089e-02 -5.6339720477e-03 +4.1612223990e+00 4.1612684080e+00 4.9935713700e-03 0.0000e+00 0.0000e+00
       11  1    1    2    0    0 -9.7055120150e-03 -5.4059746923e-03 +1.2589525234e-01 1.2638551027e-01 5.1099893000e-04 0.0000e+00 1.0000e+00
<vert_displacement>
332.10307708101374
</vert_displacement>
</event>
<event>
 4   1200 +8.6263000e+09 8.21472600e-03 7.81665300e-03            nan
       50 -1    0    0    0    0 -1.9816484642e-03 +1.7768283126e-03 +4.8093983066e+00 4.8094016355e+00 4.9935713700e-03 0.0000e+00 0.0000e+00
       11 -1    0    0    0    0 -2.4302165564e-19 +2.1790330935e-19 +5.8980589151e-16 5.1100000000e-04 5.1099893000e-04 0.0000e+00 1.0000e+00
       50  1    1    2    0    0 +4.4191177566e-03 +3.1019834369e-03 +4.7673972237e+00 4.7674028962e+00 4.9935713700e-03 0.0000e+00 0.0000e+00
       11  1    1    2    0    0 -6.4007662209e-03 -1.3251551243e-03 +4.2001082971e-02 4.2509739295e-02 5.1099893000e-04 0.0000e+00 1.0000e+00
<vert_displacement>
231.87217686861737
</vert_displacement>
</event>
<event>
 4   1200 +8.6263000e+09 1.72696200e-02 7.81665300e-03            nan
       50 -1    0    0    0    0 -1.4578381690e-02 +7.3299774979e-03 +4.4057340905e+00 4.4057671375e+00 4.9935713700e-03 0.0000e+00 0.0000e+00
       11 -1    0    0    0    0 +1.8827478312e-18 -9.4664137145e-19 -5.6898539769e-16 5.1100000000e-04 5.1099893000e-04 0.0000e+00 1.0000e+00
       50  1    1    2    0    0 -3.0121625414e-02 +8.0281895448e-03 +4.1195423541e+00 4.1196633245e+00 4.9935713700e-03 0.0000e+00 0.0000e+00
       11  1    1    2    0    0 +1.5543243724e-02 -6.9821204695e-04 +2.8619173633e-01 2.8661481292e-01 5.1099893000e-04 0.0000e+00 1.0000e+00
<vert_displacement>
263.86945621335366
</vert_displacement>
</event>
<event>
 4   1200 +8.6263000e+09 5.97620300e-03 7.81665300e-03            nan
       50 -1    0    0    0    0 -4.0927697456e-03 -8.6843539225e-03 +6.1267088241e+00 6.1267183809e+00 4.9935713700e-03 0.0000e+00 0.0000e+00
       11 -1    0    0    0    0 +5.4696784137e-19 +1.1605984734e-18 -8.1878847542e-16 5.1100000000e-04 5.1099893000e-04 0.0000e+00 1.0000e+00
       50  1    1    2    0    0 -1.7239641112e-03 -6.3887251796e-03 +6.1161472658e+00 6.1161528840e+00 4.9935713700e-03 0.0000e+00 0.0000e+00
       11  1    1    2    0    0 -2.3688056343e-03 -2.2956287429e-03 +1.0561558258e-02 1.1076496928e-02 5.1099893000e-04 0.0000e+00 1.0000e+00
<vert_displacement>
487.42112754264582
</vert_displacement>
</event>
<event>
 4   1200 +8.6263000e+09 5.30166200e-03 7.81665300e-03            nan
       50 -1    0    0    0    0 -5.5980119952e-04 +1.2660647281e-03 +7.9159296215e-01 7.9160992274e-01 4.9935713700e-03 0.0000e+00 0.0000e+00
       11 -1    0    0    0    0 +5.6431204969e-20 -1.2762666146e-19 -7.9797157879e-17 5.1100000000e-04 5.1099893000e-04 0.0000e+00 1.0000e+00
       50  1    1    2    0    0 +1.1232248677e-03 +1.8498985836e-03 +7.8847490107e-01 7.8849368363e-01 4.9935713700e-03 0.0000e+00 0.0000e+00
       11  1    1    2    0    0 -1.6830260672e-03 -5.8383385552e-04 +3.1180610815e-03 3.6272391055e-03 5.1099893000e-04 0.0000e+00 1.0000e+00
<vert_displacement>
267.06852622408525
</vert_displacement>
</event>
<event>
 4   1200 +8.6263000e+09 9.22517400e-03 7.81665300e-03            nan
       50 -1    0    0    0    0 +1.1601078933e-02 +5.2310110123e-03 +7.4393460484e+00 7.4393586090e+00 4.9935713700e-03 0.0000e+00 0.0000e+00
       11 -1    0    0    0    0 +5.9513558948e-19 +2.6835097325e-19 +3.8163860634e-16 5.1100000000e-04 5.1099893000e-04 0.0000e+00 1.0000e+00
       50  1    1    2    0    0 +3.8571629750e-03 +3.9146862000e-03 +7.3800069799e+00 7.3800107156e+00 4.9935713700e-03 0.0000e+00 0.0000e+00
       11  1    1    2    0    0 +7.7439159578e-03 +1.3163248123e-03 +5.9339068525e-02 5.9858893397e-02 5.1099893000e-04 0.0000e+00 1.0000e+00
<vert_displacement>
445.12852588406179
</vert_displacement>
</event>
<event>
 4   1200 +8.6263000e+09 2.42086700e-02 7.81665300e-03            nan
       50 -1    0    0    0    0 +6.2958071673e-04 -1.0705584382e-02 +5.0756775712e+00 5.0756913566e+00 4.9935713700e-03 0.0000e+00 0.0000e+00
       11 -1    0    0    0    0 +2.5820694785e-20 -4.3906304541e-19 +2.0816635248e-16 5.1100000000e-04 5.1099893000e-04 0.0000e+00 1.0000e+00
       50  1    1    2    0    0 +1.9770271138e-02 +4.4649245033e-03 +4.4488092039e+00 4.4488581757e+00 4.9935713700e-03 0.0000e+00 0.0000e+00
       11  1    1    2    0    0 -1.9140690421e-02 -1.5170508885e-02 +6.2686836728e-01 6.2734418097e-01 5.1099893000e-04 0.0000e+00 1.0000e+00
<vert_displacement>
197.15601998336803
</vert_displacement>
</event>
<event>
 4   1200 +8.6263000e+09 1.89632900e-02 7.81665300e-03            nan
       50 -1    0    0    0    0 +1.3359265132e-02 -4.9766474593e-03 +8.7065434417e+00 8.7065565452e+00 4.9935713700e-03 0.0000e+00 0.0000e+00
       11 -1    0    0    0    0 +1.1392269242e-18 -4.2438941978e-19 +7.4246065242e-16 5.1100000000e-04 5.1099893000e-04 0.0000e+00 1.0000e+00
       50  1    1    2    0    0 +3.1051365746e-02 -6.4786116566e-03 +8.3656469510e+00 8.3657085776e+00 4.9935713700e-03 0.0000e+00 0.0000e+00
       11  1    1    2    0    0 -1.7692100614e-02 +1.5019641973e-03 +3.4089649072e-01 3.4135896769e-01 5.1099893000e-04 0.0000e+00 1.0000e+00
<vert_displacement>
397.56416925429966
</vert_displacement>
</event>
<event>
 4   1200 +8.6263000e+09 4.95178600e-02 7.81665300e-03            nan
       50 -1    0    0    0    0 +6.9926150711e-02 +6.7900574776e-02 +3.9085608715e+01 3.9085730564e+01 4.9935713700e-03 0.0000e+00 0.0000e+00
       11 -1    0    0    0    0 -3.7490271163e-18 -3.6404277007e-18 -2.0955394433e-15 5.1100000000e-04 5.1099893000e-04 0.0000e+00 1.0000e+00
       50  1    1    2    0    0 +5.2061426754e-02 +1.6057632237e-02 +3.6545685405e+01 3.6545726356e+01 4.9935713700e-03 0.0000e+00 0.0000e+00
       11  1    1    2    0    0 +1.7864723957e-02 +5.1842942539e-02 +2.5399233102e+00 2.5405152079e+00 5.1099893000e-04 0.0000e+00 1.0000e+00
<vert_displacement>
149.90058956531618
</vert_displacement>
</event>
<event>
 4   1200 +8.6263000e+09 5.73292000e-03 7.81665300e-03            nan
       50 -1    0    0    0    0 -2.4617206967e-02 -6.4993557224e-02 +2.7633890881e+01 2.7633978727e+01 4.9935713700e-03 0.0000e+00 0.0000e+00
       11 -1    0    0    0    0 -7.6649141937e-19 -2.0236659664e-18 +8.6042012290e-16 5.1100000000e-04 5.1099893000e-04 0.0000e+00 1.0000e+00
       50  1    1    2    0    0 -2.2881446972e-02 -6.2752316166e-02 +2.7626135454e+01 2.7626216651e+01 4.9935713700e-03 0.0000e+00 0.0000e+00
       11  1    1    2    0    0 -1.7357599943e-03 -2.2412410580e-03 +7.7554267613e-03 8.2730761144e-03 5.1099893000e-04 0.0000e+00 1.0000e+00
<vert_displacement>
297.39095446605774
</vert_displacement>
</event>
<event>
 4   1200 +8.6263000e+09 2.80070200e-02 7.81665300e-03            nan
       50 -1    0    0    0    0 -5.9279620861e-02 -8.8330983151e-03 +2.9667955895e+01 2.9668016854e+01 4.9935713700e-03 0.0000e+00 0.0000e+00
       11 -1    0    0    0    0 +4.6585035521e-18 +6.9415119865e-19 -2.3314635943e-15 5.1100000000e-04 5.1099893000e-04 0.0000e+00 1.0000e+00
       50  1    1    2    0    0 -7.7448239363e-02 +1.0672365239e-02 +2.8905175991e+01 2.8905282150e+01 4.9935713700e-03 0.0000e+00 0.0000e+00
       11  1    1    2    0    0 +1.8168618502e-02 -1.9505463554e-02 +7.6277990393e-01 7.6324570406e-01 5.1099893000e-04 0.0000e+00 1.0000e+00
<vert_displacement>
168.62966256842515
</vert_displacement>
</event>
<event>
 4   1200 +8.6263000e+09 6.84644700e-02 7.81665300e-03            nan
       50 -1    0    0    0    0 +4.0709823866e-02 -7.9257852540e-03 +2.4697711130e+01 2.4697746458e+01 4.9935713700e-03 0.0000e+00 0.0000e+00
       11 -1    0    0    0    0 +4.6893862770e-18 -9.1297542153e-19 +2.8449424893e-15 5.1100000000e-04 5.1099893000e-04 0.0000e+00 1.0000e+00
       50  1    1    2    0    0 -3.0815295276e-02 +2.3541917563e-02 +1.8656374225e+01 1.8656415196e+01 4.9935713700e-03 0.0000e+00 0.0000e+00
       11  1    1    2    0    0 +7.1525119142e-02 -3.1467702817e-02 +6.0413369053e+00 6.0418422624e+00 5.1099893000e-04 0.0000e+00 1.0000e+00
<vert_displacement>
405.27043264240370
</vert_displacement>
</event>
<event>
 4   1200 +8.6263000e+09 1.15017200e-02 7.81665300e-03            nan
       50 -1    0    0    0    0 +4.7643478558e-03 +4.4344850237e-03 +1.8456801107e+01 1.8456802930e+01 4.9935713700e-03 0.0000e+00 0.0000e+00
       11 -1    0    0    0    0 +4.0838717752e-19 +3.8011221628e-19 +1.5820677117e-15 5.1100000000e-04 5.1099893000e-04 0.0000e+00 1.0000e+00
       50  1    1    2    0    0 +1.0098105670e-02 +1.3275507021e-02 +1.8351146252e+01 1.8351154512e+01 4.9935713700e-03 0.0000e+00 0.0000e+00
       11  1    1    2    0    0 -5.3337578140e-03 -8.8410219974e-03 +1.0565485475e-01 1.0615941830e-01 5.1099893000e-04 0.0000e+00 1.0000e+00
<vert_displacement>
98.947277857214615
</vert_displacement>
</event>
<event>
 4   1200 +8.6263000e+09 1.44244900e-02 7.81665300e-03            nan
       50 -1    0    0    0    0 +1.9180292787e-02 -2.0867572196e-02 +1.2116769906e+01 1.2116804084e+01 4.9935713700e-03 0.0000e+00 0.0000e+00
       11 -1    0    0    0    0 -1.0544564886e-18 +1.1472164241e-18 -6.6613199233e-16 5.1100000000e-04 5.1099893000e-04 0.0000e+00 1.0000e+00
       50  1    1    2    0    0 +2.0611195854e-02 -7.1313101643e-03 +1.1934857965e+01 1.1934878938e+01 4.9935713700e-03 0.0000e+00 0.0000e+00
       11  1    1    2    0    0 -1.4309030676e-03 -1.3736262032e-02 +1.8191194018e-01 1.8243614630e-01 5.1099893000e-04 0.0000e+00 1.0000e+00
<vert_displacement>
370.54070877103794
</vert_displacement>
</event>
<event>
 4   1200 +8.6263000e+09 6.22060100e-03 7.81665300e-03            nan
       50 -1    0    0    0    0 +3.5286498655e-03 -6.4360260776e-03 +2.7980274612e+00 2.7980415442e+00 4.9935713700e-03 0.0000e+00 0.0000e+00
       11 -1    0    0    0    0 +2.8439942135e-19 -5.1872590426e-19 +2.2551327596e-16 5.1100000000e-04 5.1099893000e-04 0.0000e+00 1.0000e+00
       50  1    1    2    0    0 +2.8594564702e-03 -2.7532197590e-03 +2.7845043278e+00 2.7845116347e+00 4.9935713700e-03 0.0000e+00 0.0000e+00
       11  1    1    2    0    0 +6.6919339524e-04 -3.6828063186e-03 +1.3523133391e-02 1.4040909472e-02 5.1099893000e-04 0.0000e+00 1.0000e+00
<vert_displacement>
195.57431575415387
</vert_displacement>
</event>
<event>
 4   1200 +8.6263000e+09 1.66766000e-02 7.81665300e-03            nan
       50 -1    0    0    0    0 -2.0832758172e-03 +5.2542446355e-03 +3.0354442156e+00 3.0354535854e+00 4.9935713700e-03 0.0000e+00 0.0000e+00
       11 -1    0    0    0    0 -1.4048696386e-19 +3.5432316265e-19 +2.0469701530e-16 5.1100000000e-04 5.1099893000e-04 0.0000e+00 1.0000e+00
       50  1    1    2    0    0 +4.6233282930e-03 +1.9297092912e-02 +2.7630181505e+00 2.7630939160e+00 4.9935713700e-03 0.0000e+00 0.0000e+00
       11  1    1    2    0    0 -6.7066041101e-03 -1.4042848277e-02 +2.7242606508e-01 2.7287066933e-01 5.1099893000e-04 0.0000e+00 1.0000e+00
<vert_displacement>
174.16365835853188
</vert_displacement>
</event>
<event>
 4   1200 +8.6263000e+09 7.87903500e-03 7.81665300e-03            nan
       50 -1    0    0    0    0 +8.4081023598e-03 +8.8307114680e-03 +7.0135661367e+00 7.0135785136e+00 4.9935713700e-03 0.0000e+00 0.0000e+00
       11 -1    0    0    0    0 -7.5698988531e-19 -7.9503780701e-19 -6.3143839099e-16 5.1100000000e-04 5.1099893000e-04 0.0000e+00 1.0000e+00
       50  1    1    2    0    0 +2.3905681366e-03 +7.5772759932e-03 +6.9770373453e+00 6.9770436564e+00 4.9935713700e-03 0.0000e+00 0.0000e+00
       11  1    1    2    0    0 +6.0175342232e-03 +1.2534354748e-03 +3.6528791390e-02 3.7045857244e-02 5.1099893000e-04 0.0000e+00 1.0000e+00
<vert_displacement>
411.18081959047089
</vert_displacement>
</event>
<event>
 4   1200 +8.6263000e+09 2.44680900e-02 7.81665300e-03            nan
       50 -1    0    0    0    0 -3.4914193240e-02 -1.7996818200e-02 +1.0254527304e+01 1.0254603749e+01 4.9935713700e-03 0.0000e+00 0.0000e+00
       11 -1    0    0    0    0 -8.5050315174e-19 -4.3839909161e-19 +2.4979834797e-16 5.1100000000e-04 5.1099893000e-04 0.0000e+00 1.0000e+00
       50  1    1    2    0    0 -5.4281082655e-02 -2.7717376019e-02 +9.6582702896e+00 9.6584638847e+00 4.9935713700e-03 0.0000e+00 0.0000e+00
       11  1    1    2    0    0 +1.9366889416e-02 +9.7205578187e-03 +5.9625701477e-01 5.9665086478e-01 5.1099893000e-04 0.0000e+00 1.0000e+00
<vert_displacement>
320.68440138468674
</vert_displacement>
</event>
<event>
 4   1200 +8.6263000e+09 5.59665200e-03 7.81665300e-03            nan
       50 -1    0    0    0    0 +1.3218739911e-02 +1.1602655102e-02 +7.1538661053e+00 7.1538894697e+00 4.9935713700e-03 0.0000e+00 0.0000e+00
       11 -1    0    0    0    0 +4.6157330706e-19 +4.0514269301e-19 +2.4979942556e-16 5.1100000000e-04 5.1099893000e-04 0.0000e+00 1.0000e+00
       50  1    1    2    0    0 +1.0690781982e-02 +1.1359143172e-02 +7.1476159486e+00 7.1476347141e+00 4.9935713700e-03 0.0000e+00 0.0000e+00
       11  1    1    2    0    0 +2.5279579290e-03 +2.4351193023e-04 +6.2501567081e-03 6.7657555478e-03 5.1099893000e-04 0.0000e+00 1.0000e+00
<vert_displacement>
173.30098375861277
</vert_displacement>
</event>
<event>
 4   1200 +8.6263000e+09 1.82382000e-02 7.81665300e-03            nan
       50 -1    0    0    0    0 -4.0987505165e-02 -2.5240301173e-02 +1.6036909359e+01 1.6036982378e+01 4.9935713700e-03 0.0000e+00 0.0000e+00
       11 -1    0    0    0    0 +7.4484926068e-18 +4.5868172733e-18 -2.9143223116e-15 5.1100000000e-04 5.1099893000e-04 0.0000e+00 1.0000e+00
       50  1    1    2    0    0 -4.4297453567e-02 -7.7004670075e-03 +1.5729960199e+01 1.5730025250e+01 4.9935713700e-03 0.0000e+00 0.0000e+00
       11  1    1    2    0    0 +3.3099484023e-03 -1.7539834165e-02 +3.0694916031e-01 3.0746812790e-01 5.1099893000e-04 0.0000e+00 1.0000e+00
<vert_displacement>
410.63681447866088
</vert_displacement>
</event>
<event>
 4   1200 +8.6263000e+09 2.33380400e-02 7.81665300e-03            nan
       50 -1    0    0    0    0 +5.5315997780e-03 -6.7096486333e-03 +1.5874015692e+01 1.5874018859e+01 4.9935713700e-03 0.0000e+00 0.0000e+00
       11 -1    0    0    0    0 +3.0466647820e-19 -3.6955041961e-19 +8.7430050071e-16 5.1100000000e-04 5.1099893000e-04 0.0000e+00 1.0000e+00
       50  1    1    2    0    0 +2.7596855577e-02 -1.5143590897e-03 +1.5347996191e+01 1.5348021889e+01 4.9935713700e-03 0.0000e+00 0.0000e+00
       11  1    1    2    0    0 -2.2065255799e-02 -5.1952895436e-03 +5.2601950047e-01 5.2650797006e-01 5.1099893000e-04 0.0000e+00 1.0000e+00
<vert_displacement>
391.31894618758304
</vert_displacement>
</event>
<event>
 4   1200 +8.6263000e+09 1.07334500e-02 7.81665300e-03            nan
       50 -1    0    0    0    0 +8.5586527870e-03 +3.2584294858e-02 +2.3963183581e+01 2.3963207783e+01 4.9935713700e-03 0.0000e+00 0.0000e+00
       11 -1    0    0    0    0 -4.8078669526e-19 -1.8304394198e-18 -1.3461440870e-15 5.1100000000e-04 5.1099893000e-04 0.0000e+00 1.0000e+00
       50  1    1    2    0    0 +6.7781282707e-03 +4.1802507741e-02 +2.3874513355e+01 2.3874551436e+01 4.9935713700e-03 0.0000e+00 0.0000e+00
       11  1    1    2    0    0 +1.7805245163e-03 -9.2182128832e-03 +8.8670226339e-02 8.9167347585e-02 5.1099893000e-04 0.0000e+00 1.0000e+00
<vert_displacement>
345.68513819846902
</vert_displacement>
</event>
<event>
 4   1200 +8.6263000e+09 3.34187900e-02 7.81665300e-03            nan
       50 -1    0    0    0    0 +3.4087505103e-02 -1.6249562282e-02 +1.2704997684e+01 1.2705054785e+01 4.9935713700e-03 0.0000e+00 0.0000e+00
       11 -1    0    0    0    0 +1.6569101608e-18 -7.8985143595e-19 +6.1755882960e-16 5.1100000000e-04 5.1099893000e-04 0.0000e+00 1.0000e+00
       50  1    1    2    0    0 +6.1606945046e-02 -2.4694611879e-03 +1.1527121427e+01 1.1527287401e+01 4.9935713700e-03 0.0000e+00 0.0000e+00
       11  1    1    2    0    0 -2.7519439943e-02 -1.3780101094e-02 +1.1778762571e+00 1.1782783835e+00 5.1099893000e-04 0.0000e+00 1.0000e+00
<vert_displacement>
454.06625565836953
</vert_displacement>
</event>
<event>
 4   1200 +8.6263000e+09 1.08588100e-02 7.81665300e-03            nan
       50 -1    0    0    0    0 -3.6280171352e-02 +5.6280107782e-02 +2.7586376105e+01 2.7586457824e+01 4.9935713700e-03 0.0000e+00 0.0000e+00
       11 -1    0    0    0    0 +3.4677456929e-19 -5.3793875300e-19 -2.6367719158e-16 5.1100000000e-04 5.1099893000e-04 0.0000e+00 1.0000e+00
       50  1    1    2    0    0 -2.6541141400e-02 +5.5420871068e-02 +2.7495109919e+01 2.7495179037e+01 4.9935713700e-03 0.0000e+00 0.0000e+00
       11  1    1    2    0    0 -9.7390299519e-03 +8.5923671316e-04 +9.1266186728e-02 9.1789786751e-02 5.1099893000e-04 0.0000e+00 1.0000e+00
<vert_displacement>
351.61443818154839
</vert_displacement>
</event>
<event>
 4   1200 +8.6263000e+09 1.06215300e-02 7.81665300e-03            nan
       50 -1    0    0    0    0 -3.9195776184e-02 +3.4622640340e-02 +3.4060321762e+01 3.4060362278e+01 4.9935713700e-03 0.0000e+00 0.0000e+00
       11 -1    0    0    0    0 -2.6031419924e-18 +2.2994224820e-18 +2.2620767462e-15 5.1100000000e-04 5.1099893000e-04 0.0000e+00 1.0000e+00
       50  1    1    2    0    0 -3.7225590312e-02 +2.5349122288e-02 +3.3974124284e+01 3.3974154502e+01 4.9935713700e-03 0.0000e+00 0.0000e+00
       11  1    1    2    0    0 -1.9701858722e-03 +9.2735180519e-03 +8.6197477660e-02 8.6718775616e-02 5.1099893000e-04 0.0000e+00 1.0000e+00
<vert_displacement>
42.548542706457511
</vert_displacement>
</event>
<event>
 4   1200 +8.6263000e+09 4.73963200e-02 7.81665300e-03            nan
       50 -1    0    0    0    0 +2.9417710098e-02 +1.0662194506e-02 +1.0391879036e+01 1.0391927343e+01 4.9935713700e-03 0.0000e+00 0.0000e+00
       11 -1    0    0    0    0 +4.1249848154e-19 +1.4950650574e-19 +1.4571611143e-16 5.1100000000e-04 5.1099893000e-04 0.0000e+00 1.0000e+00
       50  1    1    2    0    0 +3.6890621856e-02 -3.6761629886e-02 +7.2902327106e+00 7.2904204437e+00 4.9935713700e-03 0.0000e+00 0.0000e+00
       11  1    1    2    0    0 -7.4729117580e-03 +4.7423824391e-02 +3.1016463251e+00 3.1020178998e+00 5.1099893000e-04 0.0000e+00 1.0000e+00
<vert_displacement>
427.18759114016626
</vert_displacement>
</event>
<event>
 4   1200 +8.6263000e+09 1.05155900e-02 7.81665300e-03            nan
       50 -1    0    0    0    0 +2.5294708150e-03 -2.8091964274e-02 +1.1077458594e+01 1.1077495628e+01 4.9935713700e-03 0.0000e+00 0.0000e+00
       11 -1    0    0    0    0 +1.2041815509e-19 -1.3373479111e-18 +5.2735422722e-16 5.1100000000e-04 5.1099893000e-04 0.0000e+00 1.0000e+00
       50  1    1    2    0    0 -6.5943019665e-03 -2.9536148903e-02 +1.0993009431e+01 1.0993052222e+01 4.9935713700e-03 0.0000e+00 0.0000e+00
       11  1    1    2    0    0 +9.1237727815e-03 +1.4441846291e-03 +8.4449162625e-02 8.4954405930e-02 5.1099893000e-04 0.0000e+00 1.0000e+00
<vert_displacement>
442.53638787951314
</vert_displacement>
</event>
<event>
 4   1200 +8.6263000e+09 6.75592200e-03 7.81665300e-03            nan
       50 -1    0    0    0    0 +3.7789692517e-02 -7.9227517810e-03 +4.1766731172e+01 4.1766749318e+01 4.9935713700e-03 0.0000e+00 0.0000e+00
       11 -1    0    0    0    0 -9.4172519958e-19 +1.9743624531e-19 -1.0408336408e-15 5.1100000000e-04 5.1099893000e-04 0.0000e+00 1.0000e+00
       50  1    1    2    0    0 +3.3221232626e-02 -7.8629563842e-03 +4.1746464228e+01 4.1746478486e+01 4.9935713700e-03 0.0000e+00 0.0000e+00
       11  1    1    2    0    0 +4.5684598915e-03 -5.9795396746e-05 +2.0266943834e-02 2.0781831814e-02 5.1099893000e-04 0.0000e+00 1.0000e+00
<vert_displacement>
441.68580570424621
</vert_displacement>
</event>
<event>
 4   1200 +8.6263000e+09 4.16739100e-02 7.81665300e-03            nan
       50 -1    0    0    0    0 +4.1082886356e-02 +2.2849280032e-02 +1.3727196171e+01 1.3727277572e+01 4.9935713700e-03 0.0000e+00 0.0000e+00
       11 -1    0    0    0    0 +2.0766667466e-18 +1.1549904166e-18 +6.9388532161e-16 5.1100000000e-04 5.1099893000e-04 0.0000e+00 1.0000e+00
       50  1    1    2    0    0 +5.6075274493e-03 +4.8474994350e-02 +1.1773775489e+01 1.1773877673e+01 4.9935713700e-03 0.0000e+00 0.0000e+00
       11  1    1    2    0    0 +3.5475358907e-02 -2.5625714318e-02 +1.9534206821e+00 1.9539108989e+00 5.1099893000e-04 0.0000e+00 1.0000e+00
<vert_displacement>
88.621122734679119
</vert_displacement>
</event>
<event>
 4   1200 +8.6263000e+09 6.92844700e-03 7.81665300e-03            nan
       50 -1    0    0    0    0 +1.2728986281e-02 +1.4061777469e-02 +7.8701692101e+00 7.8701936502e+00 4.9935713700e-03 0.0000e+00 0.0000e+00
       11 -1    0    0    0    0 -6.7336414082e-20 -7.4386887493e-20 -4.1633242515e-17 5.1100000000e-04 5.1099893000e-04 0.0000e+00 1.0000e+00
       50  1    1    2    0    0 +1.5909484249e-02 +1.7587515969e-02 +7.8475198569e+00 7.8475572807e+00 4.9935713700e-03 0.0000e+00 0.0000e+00
       11  1    1    2    0    0 -3.1804979673e-03 -3.5257385001e-03 +2.2649353125e-02 2.3147369531e-02 5.1099893000e-04 0.0000e+00 1.0000e+00
<vert_displacement>
130.55264120755180
</vert_displacement>
</event>
<event>
 4   1200 +8.6263000e+09 8.97300400e-03 7.81665300e-03            nan
       50 -1    0    0    0    0 +5.5920188233e-02 +1.0982953025e-02 +1.9627654761e+01 1.9627738129e+01 4.9935713700e-03 0.0000e+00 0.0000e+00
       11 -1    0    0    0    0 +4.8236796432e-18 +9.4739035404e-19 +1.6930829761e-15 5.1100000000e-04 5.1099893000e-04 0.0000e+00 1.0000e+00
       50  1    1    2    0    0 +6.1248046946e-02 +5.9013946132e-03 +1.9573106445e+01 1.9573203800e+01 4.9935713700e-03 0.0000e+00 0.0000e+00
       11  1    1    2    0    0 -5.3278587131e-03 +5.0815584116e-03 +5.4548316388e-02 5.5045329094e-02 5.1099893000e-04 0.0000e+00 1.0000e+00
<vert_displacement>
34.542642847308414
</vert_displacement>
</event>
<event>
 4   1200 +8.6263000e+09 8.59646400e-03 7.81665300e-03            nan
       50 -1    0    0    0    0 +4.2490165737e-02 +2.7406467388e-02 +1.5765286924e+01 1.5765368795e+01 4.9935713700e-03 0.0000e+00 0.0000e+00
       11 -1    0    0    0    0 +1.1968908130e-18 +7.7200332041e-19 +4.4408692591e-16 5.1100000000e-04 5.1099893000e-04 0.0000e+00 1.0000e+00
       50  1    1    2    0    0 +3.5376052862e-02 +2.6900360216e-02 +1.5717249028e+01 1.5717312653e+01 4.9935713700e-03 0.0000e+00 0.0000e+00
       11  1    1    2    0    0 +7.1141128754e-03 +5.0610717145e-04 +4.8037896092e-02 4.8567142466e-02 5.1099893000e-04 0.0000e+00 1.0000e+00
<vert_displacement>
453.86386880142243
</vert_displacement>
</event>
<event>
 4   1200 +8.6263000e+09 1.77156400e-02 7.81665300e-03            nan
       50 -1    0    0    0    0 -1.5447939493e-02 -9.1845666530e-03 +7.7659735706e+00 7.7659959716e+00 4.9935713700e-03 0.0000e+00 0.0000e+00
       11 -1    0    0    0    0 +1.0628071339e-18 +6.3189158434e-19 -5.3429339989e-16 5.1100000000e-04 5.1099893000e-04 0.0000e+00 1.0000e+00
       50  1    1    2    0    0 -5.0423530578e-04 +2.5808669915e-04 +7.4721518707e+00 7.4721535607e+00 4.9935713700e-03 0.0000e+00 0.0000e+00
       11  1    1    2    0    0 -1.4943704187e-02 -9.4426533522e-03 +2.9382169996e-01 2.9435341086e-01 5.1099893000e-04 0.0000e+00 1.0000e+00
<vert_displacement>
33.080655256674497
</vert_displacement>
</event>
<event>
 4   1200 +8.6263000e+09 6.17419500e-03 7.81665300e-03            nan
       50 -1    0    0    0    0 -4.9259217221e-02 -3.6469535790e-03 +1.5365979212e+01 1.5366059412e+01 4.9935713700e-03 0.0000e+00 0.0000e+00
       11 -1    0    0    0    0 -2.7582711274e-18 -2.0421125887e-19 +8.6041839872e-16 5.1100000000e-04 5.1099893000e-04 0.0000e+00 1.0000e+00
       50  1    1    2    0    0 -4.8999042648e-02 -1.9380712300e-05 +1.5353068440e+01 1.5353147442e+01 4.9935713700e-03 0.0000e+00 0.0000e+00
       11  1    1    2    0    0 -2.6017457309e-04 -3.6275728667e-03 +1.2910771382e-02 1.3422969615e-02 5.1099893000e-04 0.0000e+00 1.0000e+00
<vert_displacement>
3.5437149076312351
</vert_displacement>
</event>
<event>
 4   1200 +8.6263000e+09 1.35984700e-02 7.81665300e-03            nan
       50 -1    0    0    0    0 -7.5376003525e-03 -1.1527845107e-02 +5.4736988439e+00 5.4737184506e+00 4.9935713700e-03 0.0000e+00 0.0000e+00
       11 -1    0    0    0    0 +1.2135140279e-18 +1.8559224547e-18 -8.8123673593e-16 5.1100000000e-04 5.1099893000e-04 0.0000e+00 1.0000e+00
       50  1    1    2    0    0 -1.2323929484e-02 -2.2802581890e-02 +5.3123386683e+00 5.3124042485e+00 4.9935713700e-03 0.0000e+00 0.0000e+00
       11  1    1    2    0    0 +4.7863291315e-03 +1.1274736783e-02 +1.6136017562e-01 1.6182520209e-01 5.1099893000e-04 0.0000e+00 1.0000e+00
<vert_displacement>
171.30210092843905
</vert_displacement>
</event>
<event>
 4   1200 +8.6263000e+09 3.06923600e-02 7.81665300e-03            nan
       50 -1    0    0    0    0 -3.8617616054e-02 +4.1335306527e-02 +2.0092097730e+01 2.0092177982e+01 4.9935713700e-03 0.0000e+00 0.0000e+00
       11 -1    0    0    0    0 -1.5470583478e-18 +1.6559316073e-18 +8.0490850275e-16 5.1100000000e-04 5.1099893000e-04 0.0000e+00 -1.0000e+00
       50  1    1    2    0    0 -6.6559785621e-02 +3.3749243016e-02 +1.9150514574e+01 1.9150660631e+01 4.9935713700e-03 0.0000e+00 0.0000e+00
       11  1    1    2    0    0 +2.7942169567e-02 +7.5860635112e-03 +9.4158315651e-01 9.4202835145e-01 5.1099893000e-04 0.0000e+00 -1.0000e+00
<vert_displacement>
334.48509818133186
</vert_displacement>
</event>
<event>
 4   1200 +8.6263000e+09 1.27564200e-02 7.81665300e-03            nan
       50 -1    0    0    0    0 -5.2660961456e-02 -2.9796339653e-02 +2.2633405180e+01 2.2633486607e+01 4.9935713700e-03 0.0000e+00 0.0000e+00
       11 -1    0    0    0    0 +1.0041947945e-17 +5.6818805330e-18 -4.3159765860e-15 5.1100000000e-04 5.1099893000e-04 0.0000e+00 1.0000e+00
       50  1    1    2    0    0 -4.2784252393e-02 -3.6427727219e-02 +2.2497777694e+01 2.2497848422e+01 4.9935713700e-03 0.0000e+00 0.0000e+00
       11  1    1    2    0    0 -9.8767090633e-03 +6.6313875659e-03 +1.3562748575e-01 1.3614918543e-01 5.1099893000e-04 0.0000e+00 1.0000e+00
<vert_displacement>
378.21383320233377
</vert_displacement>
</event>
<event>
 4   1200 +8.6263000e+09 1.24807100e-02 7.81665300e-03            nan
       50 -1    0    0    0    0 -1.3795413594e-03 +1.8325772975e-04 +8.3172263775e-01 8.3173879230e-01 4.9935713700e-03 0.0000e+00 0.0000e+00
       11 -1    0    0    0    0 -2.5895742056e-20 +3.4399801551e-21 +1.5612489429e-17 5.1100000000e-04 5.1099893000e-04 0.0000e+00 1.0000e+00
       50  1    1    2    0    0 -1.3201076174e-03 +1.1584439635e-02 +6.7210166102e-01 6.7222133292e-01 4.9935713700e-03 0.0000e+00 0.0000e+00
       11  1    1    2    0    0 -5.9433741998e-05 -1.1401181905e-02 +1.5962097673e-01 1.6002845938e-01 5.1099893000e-04 0.0000e+00 1.0000e+00
<vert_displacement>
206.73871668249379
</vert_displacement>
</event>
<event>
 4   1200 +8.6263000e+09 1.11997500e-02 7.81665300e-03            nan
       50 -1    0    0    0    0 +2.2299432517e-03 -8.8663757941e-03 +1.5249728077e+01 1.5249731635e+01 4.9935713700e-03 0.0000e+00 0.0000e+00
       11 -1    0    0    0    0 +1.4712615416e-19 -5.8498160029e-19 +1.0061394353e-15 5.1100000000e-04 5.1099893000e-04 0.0000e+00 1.0000e+00
       50  1    1    2    0    0 +1.0085831106e-02 -2.5994749400e-03 +1.5150748499e+01 1.5150752902e+01 4.9935713700e-03 0.0000e+00 0.0000e+00
       11  1    1    2    0    0 -7.8558878540e-03 -6.2669008541e-03 +9.8979577855e-02 9.9489733001e-02 5.1099893000e-04 0.0000e+00 1.0000e+00
<vert_displacement>
195.52988347610579
</vert_displacement>
</event>
<event>
 4   1200 +8.6263000e+09 6.03944600e-03 7.81665300e-03            nan
       50 -1    0    0    0    0 -2.9999562144e-02 +1.7359864336e-02 +8.8235202260e+00 8.8235897147e+00 4.9935713700e-03 0.0000e+00 0.0000e+00
       11 -1    0    0    0    0 -1.5098711990e-18 +8.7371805806e-19 +4.4408578362e-16 5.1100000000e-04 5.1099893000e-04 0.0000e+00 1.0000e+00
       50  1    1    2    0    0 -3.2477863338e-02 +1.9619067488e-02 +8.8122013304e+00 8.8122844338e+00 4.9935713700e-03 0.0000e+00 0.0000e+00
       11  1    1    2    0    0 +2.4783011942e-03 -2.2592031521e-03 +1.1318895615e-02 1.1816280867e-02 5.1099893000e-04 0.0000e+00 1.0000e+00
<vert_displacement>
8.6283026988776665
</vert_displacement>
</event>
<event>
 4   1200 +8.6263000e+09 6.20011700e-03 7.81665300e-03            nan
       50 -1    0    0    0    0 -1.5937205872e-04 +2.0956053816e-03 +1.7374802240e+00 1.7374886709e+00 4.9935713700e-03 0.0000e+00 0.0000e+00
       11 -1    0    0    0    0 +7.3194775388e-21 -9.6244828885e-20 -7.9797221518e-17 5.1100000000e-04 5.1099893000e-04 0.0000e+00 1.0000e+00
       50  1    1    2    0    0 -2.0078770459e-03 -1.0960239066e-03 +1.7241614215e+00 1.7241701703e+00 4.9935713700e-03 0.0000e+00 0.0000e+00
       11  1    1    2    0    0 +1.8485049871e-03 +3.1916292882e-03 +1.3318802423e-02 1.3829500572e-02 5.1099893000e-04 0.0000e+00 1.0000e+00
<vert_displacement>
476.94676243493319
</vert_displacement>
</event>
<event>
 4   1200 +8.6263000e+09 1.77557800e-02 7.81665300e-03            nan
       50 -1    0    0    0    0 -1.5336529843e-03 +4.9434209248e-03 +6.4448506199e+00 6.4448546328e+00 4.9935713700e-03 0.0000e+00 0.0000e+00
       11 -1    0    0    0    0 -7.9258453281e-20 +2.5547363088e-19 +3.3306679998e-16 5.1100000000e-04 5.1099893000e-04 0.0000e+00 1.0000e+00
       50  1    1    2    0    0 +1.4385228557e-02 -1.5439641028e-03 +6.1469303474e+00 6.1469494019e+00 4.9935713700e-03 0.0000e+00 0.0000e+00
       11  1    1    2    0    0 -1.5918881541e-02 +6.4873850276e-03 +2.9792027251e-01 2.9841623087e-01 5.1099893000e-04 0.0000e+00 1.0000e+00
<vert_displacement>
29.389748514295722
</vert_displacement>
</event>
<event>
 4   1200 +8.6263000e+09 2.77124400e-02 7.81665300e-03            nan
       50 -1    0    0    0    0 +4.5189696228e-02 +2.5419780538e-02 +4.0834923048e+01 4.0834956270e+01 4.9935713700e-03 0.0000e+00 0.0000e+00
       11 -1    0    0    0    0 -1.5357749275e-20 -8.6389298604e-21 -1.3877776621e-17 5.1100000000e-04 5.1099893000e-04 0.0000e+00 1.0000e+00
       50  1    1    2    0    0 +5.6312371528e-02 +4.9462452803e-02 +4.0094401930e+01 4.0094472295e+01 4.9935713700e-03 0.0000e+00 0.0000e+00
       11  1    1    2    0    0 -1.1122675300e-02 -2.4042672265e-02 +7.4052111881e-01 7.4099497469e-01 5.1099893000e-04 0.0000e+00 1.0000e+00
<vert_displacement>
166.44938296268097
</vert_displacement>
</event>
<event>
 4   1200 +8.6263000e+09 4.12664300e-02 7.81665300e-03            nan
       50 -1    0    0    0    0 -2.1462085023e-02 +2.6610150083e-02 +1.3431173540e+01 1.3431217976e+01 4.9935713700e-03 0.0000e+00 0.0000e+00
       11 -1    0    0    0    0 +1.4525065065e-18 -1.8009161781e-18 -9.0899215691e-16 5.1100000000e-04 5.1099893000e-04 0.0000e+00 1.0000e+00
       50  1    1    2    0    0 +2.2191683460e-02 +1.7318755996e-02 +1.1515622091e+01 1.1515657579e+01 4.9935713700e-03 0.0000e+00 0.0000e+00
       11  1    1    2    0    0 -4.3653768483e-02 +9.2913940874e-03 +1.9155514498e+00 1.9160713973e+00 5.1099893000e-04 0.0000e+00 1.0000e+00
<vert_displacement>
219.39822575472695
</vert_displacement>
</event>
<event>
 4   1200 +8.6263000e+09 7.11190100e-03 7.81665300e-03            nan
       50 -1    0    0    0    0 -3.8029215352e-02 -1.7067773089e-04 +1.4924933398e+01 1.4924982684e+01 4.9935713700e-03 0.0000e+00 0.0000e+00
       11 -1    0    0    0    0 +2.5813485883e-18 +1.1585269788e-20 -1.0130752212e-15 5.1100000000e-04 5.1099893000e-04 0.0000e+00 1.0000e+00
       50  1    1    2    0    0 -3.6479588212e-02 -5.0115071063e-03 +1.4899802579e+01 1.4899848916e+01 4.9935713700e-03 0.0000e+00 0.0000e+00
       11  1    1    2    0    0 -1.5496271403e-03 +4.8408293754e-03 +2.5130818618e-02 2.5644768231e-02 5.1099893000e-04 0.0000e+00 1.0000e+00
<vert_displacement>
19.242814811065557
</vert_displacement>
</event>
<event>
 4   1200 +8.6263000e+09 7.61260200e-03 7.81665300e-03            nan
       50 -1    0    0    0    0 +1.0543161425e-02 -5.4794493812e-03 +1.0228457536e+01 1.0228465656e+01 4.9935713700e-03 0.0000e+00 0.0000e+00
       11 -1    0    0    0    0 +2.2887620400e-19 -1.1895061869e-19 +2.2204445510e-16 5.1100000000e-04 5.1099893000e-04 0.0000e+00 1.0000e+00
       50  1    1    2    0    0 +9.7449069798e-03 -1.1156905899e-02 +1.0196045502e+01 1.0196057486e+01 4.9935713700e-03 0.0000e+00 0.0000e+00
       11  1    1    2    0    0 +7.9825444472e-04 +5.6774565179e-03 +3.2412033732e-02 3.2919170299e-02 5.1099893000e-04 0.0000e+00 1.0000e+00
<vert_displacement>
14.741230457857565
</vert_displacement>
</event>
<event>
 4   1200 +8.6263000e+09 1.87045100e-02 7.81665300e-03            nan
       50 -1    0    0    0    0 -4.1216227103e-02 -3.5525449190e-02 +2.3211480797e+01 2.3211545114e+01 4.9935713700e-03 0.0000e+00 0.0000e+00
       11 -1    0    0    0    0 -1.2321240667e-19 -1.0620030994e-19 +6.9388748376e-17 5.1100000000e-04 5.1099893000e-04 0.0000e+00 1.0000e+00
       50  1    1    2    0    0 -3.0873495670e-02 -5.0180114091e-02 +2.2889057024e+01 2.2889133395e+01 4.9935713700e-03 0.0000e+00 0.0000e+00
       11  1    1    2    0    0 -1.0342731432e-02 +1.4654664901e-02 +3.2242377356e-01 3.2292271857e-01 5.1099893000e-04 0.0000e+00 1.0000e+00
<vert_displacement>
113.59315285636778
</vert_displacement>
</event>
<event>
 4   1200 +8.6263000e+09 7.28043500e-03 7.81665300e-03            nan
       50 -1    0    0    0    0 +1.6794650356e-02 +7.7288623261e-03 +2.1672250656e+01 2.1672259117e+01 4.9935713700e-03 0.0000e+00 0.0000e+00
       11 -1    0    0    0    0 +7.8507273827e-19 +3.6128880218e-19 +1.0130781414e-15 5.1100000000e-04 5.1099893000e-04 0.0000e+00 1.0000e+00
       50  1    1    2    0    0 +1.4276146225e-02 +1.2391635451e-02 +2.1644750597e+01 2.1644759428e+01 4.9935713700e-03 0.0000e+00 0.0000e+00
       11  1    1    2    0    0 +2.5185041310e-03 -4.6627731249e-03 +2.7500059532e-02 2.8010689218e-02 5.1099893000e-04 0.0000e+00 1.0000e+00
<vert_displacement>
114.31727247515721
</vert_displacement>
</event>
<event>
 4   1200 +8.6263000e+09 1.12020900e-02 7.81665300e-03            nan
       50 -1    0    0    0    0 -1.4242723675e-03 -8.9890634392e-03 +3.9016508930e+00 3.9016647035e+00 4.9935713700e-03 0.0000e+00 0.0000e+00
       11 -1    0    0    0    0 +1.1905059343e-19 +7.5136846098e-19 -3.2612712621e-16 5.1100000000e-04 5.1099893000e-04 0.0000e+00 1.0000e+00
       50  1    1    2    0    0 +3.3991020727e-03 +5.5062295876e-05 +3.8006413585e+00 3.8006461593e+00 4.9935713700e-03 0.0000e+00 0.0000e+00
       11  1    1    2    0    0 -4.8233744403e-03 -9.0441257351e-03 +1.0100953456e-01 1.0152954419e-01 5.1099893000e-04 0.0000e+00 1.0000e+00
<vert_displacement>
134.61413350076708
</vert_displacement>
</event>
<event>
 4   1200 +8.6263000e+09 3.49949300e-02 7.81665300e-03            nan
       50 -1    0    0    0    0 -1.3801343696e-02 +9.6559827143e-03 +6.1833542966e+00 6.1833792548e+00 4.9935713700e-03 0.0000e+00 0.0000e+00
       11 -1    0    0    0    0 -6.5048182406e-19 +4.5510360348e-19 +2.9143246268e-16 5.1100000000e-04 5.1099893000e-04 0.0000e+00 1.0000e+00
       50  1    1    2    0    0 -4.0804151710e-02 +2.3557292249e-02 +4.6047338840e+00 4.6049776333e+00 4.9935713700e-03 0.0000e+00 0.0000e+00
       11  1    1    2    0    0 +2.7002808014e-02 -1.3901309535e-02 +1.5786204126e+00 1.5789126215e+00 5.1099893000e-04 0.0000e+00 1.0000e+00
<vert_displacement>
215.74316498426606
</vert_displacement>
</event>
<event>
 4   1200 +8.6263000e+09 1.42207900e-02 7.81665300e-03            nan
       50 -1    0    0    0    0 +1.1243324915e-02 -1.7669575534e-03 +2.6604761778e+01 2.6604764681e+01 4.9935713700e-03 0.0000e+00 0.0000e+00
       11 -1    0    0    0    0 -2.2872845521e-19 +3.5946081312e-20 -5.4123367498e-16 5.1100000000e-04 5.1099893000e-04 0.0000e+00 1.0000e+00
       50  1    1    2    0    0 +2.0905501493e-02 +7.3279107941e-03 +2.6430129162e+01 2.6430138918e+01 4.9935713700e-03 0.0000e+00 0.0000e+00
       11  1    1    2    0    0 -9.6621765775e-03 -9.0948683475e-03 +1.7463261579e-01 1.7513676343e-01 5.1099893000e-04 0.0000e+00 1.0000e+00
<vert_displacement>
30.987343792369728
</vert_displacement>
</event>
<event>
 4   1200 +8.6263000e+09 1.76050600e-02 7.81665300e-03            nan
       50 -1    0    0    0    0 +5.8725612750e-02 -9.0722675903e-02 +4.1295621776e+01 4.1295763488e+01 4.9935713700e-03 0.0000e+00 0.0000e+00
       11 -1    0    0    0    0 -5.1508963454e-18 +7.9573984480e-18 -3.6220902145e-15 5.1100000000e-04 5.1099893000e-04 0.0000e+00 1.0000e+00
       50  1    1    2    0    0 +6.7859929391e-02 -7.6173408371e-02 +4.1014858903e+01 4.1014986080e+01 4.9935713700e-03 0.0000e+00 0.0000e+00
       11  1    1    2    0    0 -9.1343166410e-03 -1.4549267533e-02 +2.8076287233e-01 2.8128840809e-01 5.1099893000e-04 0.0000e+00 1.0000e+00
<vert_displacement>
105.75995302200728
</vert_displacement>
</event>
<event>
 4   1200 +8.6263000e+09 9.61319400e-03 7.81665300e-03            nan
       50 -1    0    0    0    0 +2.1853368673e-02 +1.0646417801e-02 +6.5405887220e+00 6.5406358010e+00 4.9935713700e-03 0.0000e+00 0.0000e+00
       11 -1    0    0    0    0 +1.6228816101e-18 +7.9062756513e-19 +4.8571921863e-16 5.1100000000e-04 5.1099893000e-04 0.0000e+00 1.0000e+00
       50  1    1    2    0    0 +2.9808898824e-02 +1.1306070552e-02 +6.4738472621e+00 6.4739276878e+00 4.9935713700e-03 0.0000e+00 0.0000e+00
       11  1    1    2    0    0 -7.9555301512e-03 -6.5965275024e-04 +6.6741459884e-02 6.7219113272e-02 5.1099893000e-04 0.0000e+00 1.0000e+00
<vert_displacement>
360.06416209045182
</vert_displacement>
</event>
<event>
 4   1200 +8.6263000e+09 1.46687600e-02 7.81665300e-03            nan
       50 -1    0    0    0    0 +9.8351595252e-03 +1.0830284579e-02 +4.5961501431e+00 4.5961761388e+00 4.9935713700e-03 0.0000e+00 0.0000e+00
       11 -1    0    0    0    0 -2.0490583919e-18 -2.2563828726e-18 -9.5756250794e-16 5.1100000000e-04 5.1099893000e-04 0.0000e+00 1.0000e+00
       50  1    1    2    0    0 +4.9875644137e-03 +2.3433445816e-02 +4.4016991188e+00 4.4017671532e+00 4.9935713700e-03 0.0000e+00 0.0000e+00
       11  1    1    2    0    0 +4.8475951115e-03 -1.2603161238e-02 +1.9445102422e-01 1.9491998562e-01 5.1099893000e-04 0.0000e+00 1.0000e+00
<vert_displacement>
124.20742549212332
</vert_displacement>
</event>
<event>
 4   1200 +8.6263000e+09 6.80029400e-03 7.81665300e-03            nan
       50 -1    0    0    0    0 +3.5371417663e-03 +1.3500126735e-02 +8.2263846149e+00 8.2263979683e+00 4.9935713700e-03 0.0000e+00 0.0000e+00
       11 -1    0    0    0    0 +2.9238773683e-19 +1.1159494767e-18 +6.8001062404e-16 5.1100000000e-04 5.1099893000e-04 0.0000e+00 1.0000e+00
       50  1    1    2    0    0 +3.7613554482e-03 +8.8556368356e-03 +8.2054879855e+00 8.2054951457e+00 4.9935713700e-03 0.0000e+00 0.0000e+00
       11  1    1    2    0    0 -2.2421368187e-04 +4.6444898996e-03 +2.0896629369e-02 2.1413822571e-02 5.1099893000e-04 0.0000e+00 1.0000e+00
<vert_displacement>
305.69329143678914
</vert_displacement>
</event>
<event>
 4   1200 +8.6263000e+09 7.41789600e-03 7.81665300e-03            nan
       50 -1    0    0    0    0 +6.2968462259e-02 +1.7604842439e-02 +2.5885885300e+01 2.5885968354e+01 4.9935713700e-03 0.0000e+00 0.0000e+00
       11 -1    0    0    0    0 -1.7554249480e-18 -4.9078504563e-19 -7.2164266405e-16 5.1100000000e-04 5.1099893000e-04 0.0000e+00 1.0000e+00
       50  1    1    2    0    0 +6.8325802376e-02 +1.6800719071e-02 +2.5856396837e+01 2.5856493053e+01 4.9935713700e-03 0.0000e+00 0.0000e+00
       11  1    1    2    0    0 -5.3573401173e-03 +8.0412336792e-04 +2.9488462569e-02 2.9986301074e-02 5.1099893000e-04 0.0000e+00 1.0000e+00
<vert_displacement>
476.84085483552099
</vert_displacement>
</event>
<event>
 4   1200 +8.6263000e+09 5.21137500e-03 7.81665300e-03            nan
       50 -1    0    0    0    0 +1.8788800501e-02 -5.5177651063e-03 +8.4795434941e+00 8.4795675756e+00 4.9935713700e-03 0.0000e+00 0.0000e+00
       11 -1    0    0    0    0 +1.3837517448e-19 -4.0637065111e-20 +6.2449878609e-17 5.1100000000e-04 5.1099893000e-04 0.0000e+00 1.0000e+00
       50  1    1    2    0    0 +1.7293321758e-02 -5.5408987305e-03 +8.4773712675e+00 8.4773921876e+00 4.9935713700e-03 0.0000e+00 0.0000e+00
       11  1    1    2    0    0 +1.4954787426e-03 +2.3133624222e-05 +2.1722266554e-03 2.6863879807e-03 5.1099893000e-04 0.0000e+00 1.0000e+00
<vert_displacement>
324.26461617271809
</vert_displacement>
</event>
<event>
 4   1200 +8.6263000e+09 7.62594000e-03 7.81665300e-03            nan
       50 -1    0    0    0    0 +1.2860115721e-03 -3.3959093656e-02 +1.3855330712e+01 1.3855373288e+01 4.9935713700e-03 0.0000e+00 0.0000e+00
       11 -1    0    0    0    0 +6.1828420802e-20 -1.6326735919e-18 +6.6613181109e-16 5.1100000000e-04 5.1099893000e-04 0.0000e+00 1.0000e+00
       50  1    1    2    0    0 -1.7837164036e-03 -2.8999238245e-02 +1.3822760992e+01 1.3822792429e+01 4.9935713700e-03 0.0000e+00 0.0000e+00
       11  1    1    2    0    0 +3.0697279757e-03 -4.9598554111e-03 +3.2569719422e-02 3.3091859099e-02 5.1099893000e-04 0.0000e+00 1.0000e+00
<vert_displacement>
3.4890631388832718
</vert_displacement>
</event>
<event>
 4   1200 +8.6263000e+09 2.53103500e-02 7.81665300e-03            nan
       50 -1    0    0    0    0 +5.8860419834e-03 +9.3116879692e-03 +5.4066723845e+00 5.4066859130e+00 4.9935713700e-03 0.0000e+00 0.0000e+00
       11 -1    0    0    0    0 +2.2662295673e-19 +3.5851634522e-19 +2.0816638503e-16 5.1100000000e-04 5.1099893000e-04 0.0000e+00 1.0000e+00
       50  1    1    2    0    0 -1.4894562483e-02 -6.5264354054e-03 +4.7154662987e+00 4.7154969825e+00 4.9935713700e-03 0.0000e+00 0.0000e+00
       11  1    1    2    0    0 +2.0780604466e-02 +1.5838123375e-02 +6.9120608579e-01 6.9169993048e-01 5.1099893000e-04 0.0000e+00 1.0000e+00
<vert_displacement>
18.137323133033533
</vert_displacement>
</event>
<event>
 4   1200 +8.6263000e+09 1.17443800e-02 7.81665300e-03            nan
       50 -1    0    0    0    0 +1.2374309519e-02 +7.8656661721e-03 +8.5850563724e+00 8.5850703459e+00 4.9935713700e-03 0.0000e+00 0.0000e+00
       11 -1    0    0    0    0 -1.4102189621e-18 -8.9639842681e-19 -9.7838261348e-16 5.1100000000e-04 5.1099893000e-04 0.0000e+00 1.0000e+00
       50  1    1    2    0    0 +1.6178708364e-02 +1.7625380691e-02 +8.4730067679e+00 8.4730420174e+00 4.9935713700e-03 0.0000e+00 0.0000e+00
       11  1    1    2    0    0 -3.8043988453e-03 -9.7597145186e-03 +1.1204960445e-01 1.1253932848e-01 5.1099893000e-04 0.0000e+00 1.0000e+00
<vert_displacement>
430.26527931597496
</vert_displacement>
</event>
<event>
 4   1200 +8.6263000e+09 1.12181500e-02 7.81665300e-03            nan
       50 -1    0    0    0    0 -1.5988845100e-03 +3.5754790421e-03 +7.5747617931e+00 7.5747644517e+00 4.9935713700e-03 0.0000e+00 0.0000e+00
       11 -1    0    0    0    0 -1.7136580523e-19 +3.8321394778e-19 +8.1185047823e-16 5.1100000000e-04 5.1099893000e-04 0.0000e+00 -1.0000e+00
       50  1    1    2    0    0 -6.3264941150e-03 -5.3239145067e-03 +7.4746931129e+00 7.4746993542e+00 4.9935713700e-03 0.0000e+00 0.0000e+00
       11  1    1    2    0    0 +4.7276096050e-03 +8.8993935488e-03 +1.0006868025e-01 1.0057609748e-01 5.1099893000e-04 0.0000e+00 -1.0000e+00
<vert_displacement>
242.28702744255881
</vert_displacement>
</event>
<event>
 4   1200 +8.6263000e+09 2.65776300e-02 7.81665300e-03            nan
       50 -1    0    0    0    0 -1.6514446009e-02 -2.0844971017e-02 +9.5185598508e+00 9.5185983112e+00 4.9935713700e-03 0.0000e+00 0.0000e+00
       11 -1    0    0    0    0 -5.8989864235e-19 -7.4458568551e-19 +3.4000447427e-16 5.1100000000e-04 5.1099893000e-04 0.0000e+00 1.0000e+00
       50  1    1    2    0    0 -4.1363777365e-02 -1.8875907757e-02 +8.7968654839e+00 8.7969844004e+00 4.9935713700e-03 0.0000e+00 0.0000e+00
       11  1    1    2    0    0 +2.4849331356e-02 -1.9690632599e-03 +7.2169436692e-01 7.2212491083e-01 5.1099893000e-04 0.0000e+00 1.0000e+00
<vert_displacement>
109.31126968556605
</vert_displacement>
</event>
<event>
 4   1200 +8.6263000e+09 3.07082900e-02 7.81665300e-03            nan
       50 -1    0    0    0    0 +1.9723022885e-02 -1.7393543977e-02 +7.2273724169e+00 7.2274219831e+00 4.9935713700e-03 0.0000e+00 0.0000e+00
       11 -1    0    0    0    0 +4.1658449132e-19 -3.6738185176e-19 +1.5265465540e-16 5.1100000000e-04 5.1099893000e-04 0.0000e+00 1.0000e+00
       50  1    1    2    0    0 +4.1532981872e-02 +2.7143690157e-03 +6.1753522591e+00 6.1754945402e+00 4.9935713700e-03 0.0000e+00 0.0000e+00
       11  1    1    2    0    0 -2.1809958988e-02 -2.0107912992e-02 +1.0520201578e+00 1.0524384428e+00 5.1099893000e-04 0.0000e+00 1.0000e+00
<vert_displacement>
305.55939280155462
</vert_displacement>
</event>
<event>
 4   1200 +8.6263000e+09 3.96361600e-02 7.81665300e-03            nan
       50 -1    0    0    0    0 -1.1714567662e-02 +3.8823491370e-03 +7.4147573472e+00 7.4147692990e+00 4.9935713700e-03 0.0000e+00 0.0000e+00
       11 -1    0    0    0    0 -5.2621134251e-19 +1.7439279114e-19 +3.3306644605e-16 5.1100000000e-04 5.1099893000e-04 0.0000e+00 1.0000e+00
       50  1    1    2    0    0 +2.1110721392e-02 -2.3257414927e-02 +5.2924079126e+00 5.2925034736e+00 4.9935713700e-03 0.0000e+00 0.0000e+00
       11  1    1    2    0    0 -3.2825289053e-02 +2.7139764064e-02 +2.1223494347e+00 2.1227768254e+00 5.1099893000e-04 0.0000e+00 1.0000e+00
<vert_displacement>
268.14640946896884
</vert_displacement>
</event>
<event>
 4   1200 +8.6263000e+09 5.32517800e-03 7.81665300e-03            nan
       50 -1    0    0    0    0 -2.7997704249e-02 +2.9080756193e-02 +1.1336430759e+01 1.1336503731e+01 4.9935713700e-03 0.0000e+00 0.0000e+00
       11 -1    0    0    0    0 +4.4041966162e-18 -4.5745667889e-18 -1.7832844273e-15 5.1100000000e-04 5.1099893000e-04 0.0000e+00 1.0000e+00
       50  1    1    2    0    0 -2.9601235842e-02 +2.8164503534e-02 +1.1333079883e+01 1.1333154638e+01 4.9935713700e-03 0.0000e+00 0.0000e+00
       11  1    1    2    0    0 +1.6035315929e-03 +9.1625265912e-04 +3.3508755194e-03 3.8600931540e-03 5.1099893000e-04 0.0000e+00 1.0000e+00
<vert_displacement>
84.004942196155525
</vert_displacement>
</event>
<event>
 4   1200 +8.6263000e+09 7.30789700e-03 7.81665300e-03            nan
       50 -1    0    0    0    0 -9.1342331879e-03 +1.1272964248e-02 +3.3274456069e+01 3.3274459607e+01 4.9935713700e-03 0.0000e+00 0.0000e+00
       11 -1    0    0    0    0 +9.0287926041e-19 -1.1142835325e-18 -3.2890353978e-15 5.1100000000e-04 5.1099893000e-04 0.0000e+00 1.0000e+00
       50  1    1    2    0    0 -1.0234193939e-02 +6.0440553076e-03 +3.3246576971e+01 3.3246579470e+01 4.9935713700e-03 0.0000e+00 0.0000e+00
       11  1    1    2    0    0 +1.0999607513e-03 +5.2289089405e-03 +2.7879098744e-02 2.8391137157e-02 5.1099893000e-04 0.0000e+00 1.0000e+00
<vert_displacement>
497.09083395231465
</vert_displacement>
</event>
<event>
 4   1200 +8.6263000e+09 1.29640100e-02 7.81665300e-03            nan
       50 -1    0    0    0    0 -1.0964598141e-02 -9.0527439265e-03 +4.3087589517e+00 4.3087853061e+00 4.9935713700e-03 0.0000e+00 0.0000e+00
       11 -1    0    0    0    0 +4.9440907562e-19 +4.0820089335e-19 -1.9428797143e-16 5.1100000000e-04 5.1099893000e-04 0.0000e+00 1.0000e+00
       50  1    1    2    0    0 -1.3764644008e-02 -2.0284474908e-02 +4.1637570712e+00 4.1638322264e+00 4.9935713700e-03 0.0000e+00 0.0000e+00
       11  1    1    2    0    0 +2.8000458668e-03 +1.1231730982e-02 +1.4500188046e-01 1.4546407974e-01 5.1099893000e-04 0.0000e+00 1.0000e+00
<vert_displacement>
212.30202280212623
</vert_displacement>
</event>
<event>
 4   1200 +8.6263000e+09 1.12089500e-02 7.81665300e-03            nan
       50 -1    0    0    0    0 +9.3402599078e-03 +7.0649930517e-03 +3.0180013630e+00 3.0180282168e+00 4.9935713700e-03 0.0000e+00 0.0000e+00
       11 -1    0    0    0    0 +4.2949340824e-20 +3.2486975468e-20 +1.3877683322e-17 5.1100000000e-04 5.1099893000e-04 0.0000e+00 1.0000e+00
       50  1    1    2    0    0 +1.7223422634e-02 +1.0397670941e-03 +2.9159595673e+00 2.9160148938e+00 4.9935713700e-03 0.0000e+00 0.0000e+00
       11  1    1    2    0    0 -7.8831627264e-03 +6.0252259576e-03 +1.0204179576e-01 1.0252432299e-01 5.1099893000e-04 0.0000e+00 1.0000e+00
<vert_displacement>
90.569999241213395
</vert_displacement>
</event>
<event>
 4   1200 +8.6263000e+09 6.20263000e-03 7.81665300e-03            nan
       50 -1    0    0    0    0 +1.2636446403e-02 +9.7065300265e-04 +4.5997791016e+00 4.5997992719e+00 4.9935713700e-03 0.0000e+00 0.0000e+00
       11 -1    0    0    0    0 -1.2390531588e-18 -9.5176336030e-20 -4.5102639176e-16 5.1100000000e-04 5.1099893000e-04 0.0000e+00 1.0000e+00
       50  1    1    2    0    0 +1.1000302180e-02 +4.2811528045e-03 +4.5864973339e+00 4.5865152419e+00 4.9935713700e-03 0.0000e+00 0.0000e+00
       11  1    1    2    0    0 +1.6361442223e-03 -3.3104998019e-03 +1.3281767754e-02 1.3795029954e-02 5.1099893000e-04 0.0000e+00 1.0000e+00
<vert_displacement>
0.17496461278936187
</vert_displacement>
</event>
<event>
 4   1200 +8.6263000e+09 2.54575000e-02 7.81665300e-03            nan
       50 -1    0    0    0    0 -3.3742657549e-02 +2.0010254466e-02 +1.2294982086e+01 1.2295045685e+01 4.9935713700e-03 0.0000e+00 0.0000e+00
       11 -1    0    0    0    0 +3.3325561012e-18 -1.9762905608e-18 -1.2143002520e-15 5.1100000000e-04 5.1099893000e-04 0.0000e+00 1.0000e+00
       50  1    1    2    0    0 -5.5544834073e-02 +1.0735877305e-02 +1.1651428140e+01 1.1651566552e+01 4.9935713700e-03 0.0000e+00 0.0000e+00
       11  1    1    2    0    0 +2.1802176524e-02 +9.2743771614e-03 +6.4355394592e-01 6.4399013300e-01 5.1099893000e-04 0.0000e+00 1.0000e+00
<vert_displacement>
186.92397853704770
</vert_displacement>
</event>
<event>
 4   1200 +8.6263000e+09 1.77630100e-02 7.81665300e-03            nan
       50 -1    0    0    0    0 -2.8485952562e-03 -3.5769435965e-04 +1.2412868296e+00 1.2413001940e+00 4.9935713700e-03 0.0000e+00 0.0000e+00
       11 -1    0    0    0    0 +2.3885753379e-20 +2.9993026355e-21 -1.0408313016e-17 5.1100000000e-04 5.1099893000e-04 0.0000e+00 1.0000e+00
       50  1    1    2    0    0 +1.2407751296e-02 +9.1785434435e-03 +7.8837744359e-01 7.8854430901e-01 4.9935713700e-03 0.0000e+00 0.0000e+00
       11  1    1    2    0    0 -1.5256346552e-02 -9.5362378031e-03 +4.5290938601e-01 4.5326688495e-01 5.1099893000e-04 0.0000e+00 1.0000e+00
<vert_displacement>
37.350899791903814
</vert_displacement>
</event>
</LesHouchesEvents>
